 Entering Gaussian System, Link 0=g16
 Input=to-10-step-1-TS.gau
 Output=to-10-step-1-TS.log
 Initial command:
 /apps/gaussian/g16c01/g16/l1.exe "/jobfs/156980332.gadi-pbs/Gau-321359.inp" -scrdir="/jobfs/156980332.gadi-pbs/"
 Default is to use a total of  24 processors:
                               24 via shared-memory
                                1 via Linda
 Entering Link 1 = /apps/gaussian/g16c01/g16/l1.exe PID=    321360.
  
 Copyright (c) 1988-2019, Gaussian, Inc.  All Rights Reserved.
  
 This is part of the Gaussian(R) 16 program.  It is based on
 the Gaussian(R) 09 system (copyright 2009, Gaussian, Inc.),
 the Gaussian(R) 03 system (copyright 2003, Gaussian, Inc.),
 the Gaussian(R) 98 system (copyright 1998, Gaussian, Inc.),
 the Gaussian(R) 94 system (copyright 1995, Gaussian, Inc.),
 the Gaussian 92(TM) system (copyright 1992, Gaussian, Inc.),
 the Gaussian 90(TM) system (copyright 1990, Gaussian, Inc.),
 the Gaussian 88(TM) system (copyright 1988, Gaussian, Inc.),
 the Gaussian 86(TM) system (copyright 1986, Carnegie Mellon
 University), and the Gaussian 82(TM) system (copyright 1983,
 Carnegie Mellon University). Gaussian is a federally registered
 trademark of Gaussian, Inc.
  
 This software contains proprietary and confidential information,
 including trade secrets, belonging to Gaussian, Inc.
  
 This software is provided under written license and may be
 used, copied, transmitted, or stored only in accord with that
 written license.
  
 The following legend is applicable only to US Government
 contracts under FAR:
  
                    RESTRICTED RIGHTS LEGEND
  
 Use, reproduction and disclosure by the US Government is
 subject to restrictions as set forth in subparagraphs (a)
 and (c) of the Commercial Computer Software - Restricted
 Rights clause in FAR 52.227-19.
  
 Gaussian, Inc.
 340 Quinnipiac St., Bldg. 40, Wallingford CT 06492
  
  
 ---------------------------------------------------------------
 Warning -- This program may not be used in any manner that
 competes with the business of Gaussian, Inc. or will provide
 assistance to any competitor of Gaussian, Inc.  The licensee
 of this program is prohibited from giving any competitor of
 Gaussian, Inc. access to this program.  By using this program,
 the user acknowledges that Gaussian, Inc. is engaged in the
 business of creating and licensing software in the field of
 computational chemistry and represents and warrants to the
 licensee that it is not a competitor of Gaussian, Inc. and that
 it will not use this program in any manner prohibited above.
 ---------------------------------------------------------------
  

 Cite this work as:
 Gaussian 16, Revision C.01,
 M. J. Frisch, G. W. Trucks, H. B. Schlegel, G. E. Scuseria, 
 M. A. Robb, J. R. Cheeseman, G. Scalmani, V. Barone, 
 G. A. Petersson, H. Nakatsuji, X. Li, M. Caricato, A. V. Marenich, 
 J. Bloino, B. G. Janesko, R. Gomperts, B. Mennucci, H. P. Hratchian, 
 J. V. Ortiz, A. F. Izmaylov, J. L. Sonnenberg, D. Williams-Young, 
 F. Ding, F. Lipparini, F. Egidi, J. Goings, B. Peng, A. Petrone, 
 T. Henderson, D. Ranasinghe, V. G. Zakrzewski, J. Gao, N. Rega, 
 G. Zheng, W. Liang, M. Hada, M. Ehara, K. Toyota, R. Fukuda, 
 J. Hasegawa, M. Ishida, T. Nakajima, Y. Honda, O. Kitao, H. Nakai, 
 T. Vreven, K. Throssell, J. A. Montgomery, Jr., J. E. Peralta, 
 F. Ogliaro, M. J. Bearpark, J. J. Heyd, E. N. Brothers, K. N. Kudin, 
 V. N. Staroverov, T. A. Keith, R. Kobayashi, J. Normand, 
 K. Raghavachari, A. P. Rendell, J. C. Burant, S. S. Iyengar, 
 J. Tomasi, M. Cossi, J. M. Millam, M. Klene, C. Adamo, R. Cammi, 
 J. W. Ochterski, R. L. Martin, K. Morokuma, O. Farkas, 
 J. B. Foresman, and D. J. Fox, Gaussian, Inc., Wallingford CT, 2019.
 
 ******************************************
 Gaussian 16:  ES64L-G16RevC.01  3-Jul-2019
                18-Dec-2025 
 ******************************************
 %OldChk=to-10-step-1-TS.xyz-modre.chk
 %chk=to-10-step-1-TS.xyz.chk
 Copying data from "to-10-step-1-TS.xyz-modre.chk" to current chk file "to-10-step-1-TS.xyz.chk"
 IOpt=  2 FromEx=T IUOpen= 4 IOptOp= 5 NList=   0 IFRang= 0 IUIn= 4 IUOut= 2.
 Default route: Maxdisk=0MB
 ----------------------------------------------------------------------
 # opt(maxcycles=300,ts,noeigen,calcfc,NoFreeze,MaxStep=5) freq scf(max
 cycle=300,xqc) UWB97XD/DEF2SVPP Guess(Read) Geom(AllCheck) scrf(smd,so
 lvent=DiethylEther) Temperature=300
 ----------------------------------------------------------------------
 1/5=1,6=300,8=5,10=4,11=1,18=20,26=3,29=2007,38=1,112=300000/1,3;
 2/9=110,12=2,40=1/2;
 3/5=43,7=202,11=2,14=-4,25=1,30=1,70=32201,71=2,72=8,74=-58,116=2,140=1/1,2,3;
 4/5=1/1;
 5/5=2,7=300,8=3,13=1,38=6,53=8/2,8;
 8/6=4,10=90,11=11/1;
 11/6=1,8=1,9=11,15=111,16=1/1,2,10;
 10/6=1,13=1/2;
 6/7=2,8=2,9=2,10=2,28=1/1;
 7/10=1,25=1/1,2,3,16;
 1/5=1,6=300,8=5,10=4,11=1,18=20,26=3/3(2);
 2/9=110/2;
 99//99;
 2/9=110/2;
 3/5=43,7=202,11=2,14=-2,25=1,30=1,70=32205,71=1,72=8,74=-58,116=2/1,2,3;
 4/5=5,16=3,69=1/1;
 5/5=2,7=300,8=3,13=1,38=5,53=8/2,8;
 7//1,2,3,16;
 1/5=1,6=300,8=5,11=1,18=20,26=3/3(-5);
 2/9=110/2;
 6/7=2,8=2,9=2,10=2,19=2,28=1/1;
 99/9=1/99;
 Structure from the checkpoint file:  "to-10-step-1-TS.xyz.chk"
 --------------------------------------------
 Title: Modredundant geometrical optimization
 --------------------------------------------
 Charge =  1 Multiplicity = 3
 Redundant internal coordinates found in file.  (old form).
 C,0,2.840153348,-0.7911519815,0.5873794309
 C,0,1.7811813226,-0.819085155,-1.3881302805
 C,0,3.0746764701,-0.1615170184,-1.2432101051
 C,0,3.2111668245,1.1813248557,-0.5386780715
 H,0,2.4788982728,1.9214056143,-0.9005713026
 H,0,4.2194075492,1.5934650137,-0.6852281695
 C,0,3.0022053765,0.6889681655,0.9031122374
 H,0,2.1208522823,1.1008295081,1.420493116
 H,0,3.8875991677,0.8644762991,1.5301826594
 H,0,3.5243680007,-1.5053184479,1.0682843478
 H,0,3.887202443,-0.4775022371,-1.9131827672
 H,0,1.6283489931,-1.537329518,-2.2042869512
 H,0,1.2815317768,-2.3363293803,0.2043266334
 C,0,1.5979387704,-1.301277757,0.0269933318
 Cu,0,0.1365569031,0.1181056666,-0.5613891199
 H,0,-4.5284171413,-0.7336709338,-1.3201930224
 H,0,-0.5414057064,1.191882174,1.7095229652
 H,0,-2.1545576182,-0.4796419696,-1.0758503313
 C,0,-1.2076975091,0.8474709453,0.909222609
 C,0,-2.5537722101,0.075433575,0.9331837244
 C,0,-1.5448316868,1.4081749692,-0.3175981113
 C,0,-2.6672557603,0.3373841589,-0.5334027464
 C,0,-4.1285865185,-0.2165984087,-0.4336608512
 H,0,-1.2374963954,2.3321452371,-0.8226063638
 H,0,-3.0764089323,-2.040132177,0.342033812
 H,0,-3.1886086149,0.8255527786,1.4387519312
 C,0,-3.5351003575,-1.1210829698,0.7412863667
 H,0,-4.872220651,0.497703824,-0.0469003925
 H,0,-4.2077743991,-1.367967831,1.5778864213
 Recover connectivity data from disk.
 Any frozen variables have been unfrozen.

 GradGradGradGradGradGradGradGradGradGradGradGradGradGradGradGradGradGrad
 Berny optimization.
 Initialization pass.
                           ----------------------------
                           !    Initial Parameters    !
                           ! (Angstroms and Degrees)  !
 --------------------------                            --------------------------
 ! Name  Definition              Value          Derivative Info.                !
 --------------------------------------------------------------------------------
 ! R1    R(1,3)                  1.95           calculate D2E/DX2 analytically  !
 ! R2    R(1,7)                  1.5221         calculate D2E/DX2 analytically  !
 ! R3    R(1,10)                 1.0998         calculate D2E/DX2 analytically  !
 ! R4    R(1,14)                 1.4551         calculate D2E/DX2 analytically  !
 ! R5    R(2,3)                  1.4583         calculate D2E/DX2 analytically  !
 ! R6    R(2,12)                 1.0979         calculate D2E/DX2 analytically  !
 ! R7    R(2,14)                 1.5062         calculate D2E/DX2 analytically  !
 ! R8    R(2,15)                 2.0656         calculate D2E/DX2 analytically  !
 ! R9    R(3,4)                  1.5226         calculate D2E/DX2 analytically  !
 ! R10   R(3,11)                 1.0995         calculate D2E/DX2 analytically  !
 ! R11   R(4,5)                  1.1022         calculate D2E/DX2 analytically  !
 ! R12   R(4,6)                  1.099          calculate D2E/DX2 analytically  !
 ! R13   R(4,7)                  1.5378         calculate D2E/DX2 analytically  !
 ! R14   R(7,8)                  1.1019         calculate D2E/DX2 analytically  !
 ! R15   R(7,9)                  1.0991         calculate D2E/DX2 analytically  !
 ! R16   R(13,14)                1.0968         calculate D2E/DX2 analytically  !
 ! R17   R(15,19)                2.1217         calculate D2E/DX2 analytically  !
 ! R18   R(15,21)                2.1333         calculate D2E/DX2 analytically  !
 ! R19   R(16,23)                1.1014         calculate D2E/DX2 analytically  !
 ! R20   R(17,19)                1.0968         calculate D2E/DX2 analytically  !
 ! R21   R(18,22)                1.1066         calculate D2E/DX2 analytically  !
 ! R22   R(19,20)                1.5519         calculate D2E/DX2 analytically  !
 ! R23   R(19,21)                1.3904         calculate D2E/DX2 analytically  !
 ! R24   R(20,22)                1.4941         calculate D2E/DX2 analytically  !
 ! R25   R(20,26)                1.1051         calculate D2E/DX2 analytically  !
 ! R26   R(20,27)                1.5593         calculate D2E/DX2 analytically  !
 ! R27   R(21,22)                1.5662         calculate D2E/DX2 analytically  !
 ! R28   R(21,24)                1.0969         calculate D2E/DX2 analytically  !
 ! R29   R(22,23)                1.566          calculate D2E/DX2 analytically  !
 ! R30   R(23,27)                1.5971         calculate D2E/DX2 analytically  !
 ! R31   R(23,28)                1.1013         calculate D2E/DX2 analytically  !
 ! R32   R(25,27)                1.102          calculate D2E/DX2 analytically  !
 ! R33   R(27,29)                1.1015         calculate D2E/DX2 analytically  !
 ! A1    A(7,1,10)             118.3295         calculate D2E/DX2 analytically  !
 ! A2    A(7,1,14)             120.7764         calculate D2E/DX2 analytically  !
 ! A3    A(10,1,14)            118.1559         calculate D2E/DX2 analytically  !
 ! A4    A(3,2,12)             119.4955         calculate D2E/DX2 analytically  !
 ! A5    A(3,2,14)              99.1431         calculate D2E/DX2 analytically  !
 ! A6    A(3,2,15)             117.5081         calculate D2E/DX2 analytically  !
 ! A7    A(12,2,14)            118.1684         calculate D2E/DX2 analytically  !
 ! A8    A(12,2,15)            118.9162         calculate D2E/DX2 analytically  !
 ! A9    A(14,2,15)             70.8735         calculate D2E/DX2 analytically  !
 ! A10   A(2,3,4)              121.547          calculate D2E/DX2 analytically  !
 ! A11   A(2,3,11)             117.7328         calculate D2E/DX2 analytically  !
 ! A12   A(4,3,11)             117.9808         calculate D2E/DX2 analytically  !
 ! A13   A(3,4,5)              112.3771         calculate D2E/DX2 analytically  !
 ! A14   A(3,4,6)              110.5651         calculate D2E/DX2 analytically  !
 ! A15   A(3,4,7)               98.0061         calculate D2E/DX2 analytically  !
 ! A16   A(5,4,6)              108.2942         calculate D2E/DX2 analytically  !
 ! A17   A(5,4,7)              115.6282         calculate D2E/DX2 analytically  !
 ! A18   A(6,4,7)              111.6995         calculate D2E/DX2 analytically  !
 ! A19   A(1,7,4)               97.5463         calculate D2E/DX2 analytically  !
 ! A20   A(1,7,8)              112.0692         calculate D2E/DX2 analytically  !
 ! A21   A(1,7,9)              111.0639         calculate D2E/DX2 analytically  !
 ! A22   A(4,7,8)              115.42           calculate D2E/DX2 analytically  !
 ! A23   A(4,7,9)              111.9831         calculate D2E/DX2 analytically  !
 ! A24   A(8,7,9)              108.4683         calculate D2E/DX2 analytically  !
 ! A25   A(1,14,2)              98.3799         calculate D2E/DX2 analytically  !
 ! A26   A(1,14,13)            120.9882         calculate D2E/DX2 analytically  !
 ! A27   A(2,14,13)            119.2835         calculate D2E/DX2 analytically  !
 ! A28   A(2,15,21)            161.3833         calculate D2E/DX2 analytically  !
 ! A29   A(15,19,17)           103.2267         calculate D2E/DX2 analytically  !
 ! A30   A(15,19,20)           112.9057         calculate D2E/DX2 analytically  !
 ! A31   A(17,19,20)           132.2082         calculate D2E/DX2 analytically  !
 ! A32   A(17,19,21)           131.6427         calculate D2E/DX2 analytically  !
 ! A33   A(20,19,21)            90.225          calculate D2E/DX2 analytically  !
 ! A34   A(19,20,22)            87.9086         calculate D2E/DX2 analytically  !
 ! A35   A(19,20,26)            99.6511         calculate D2E/DX2 analytically  !
 ! A36   A(19,20,27)           157.7693         calculate D2E/DX2 analytically  !
 ! A37   A(22,20,26)           106.6434         calculate D2E/DX2 analytically  !
 ! A38   A(22,20,27)            88.0477         calculate D2E/DX2 analytically  !
 ! A39   A(26,20,27)           102.4519         calculate D2E/DX2 analytically  !
 ! A40   A(15,21,22)            97.7963         calculate D2E/DX2 analytically  !
 ! A41   A(15,21,24)           103.6476         calculate D2E/DX2 analytically  !
 ! A42   A(19,21,22)            91.1253         calculate D2E/DX2 analytically  !
 ! A43   A(19,21,24)           132.687          calculate D2E/DX2 analytically  !
 ! A44   A(22,21,24)           135.5001         calculate D2E/DX2 analytically  !
 ! A45   A(18,22,20)           108.4525         calculate D2E/DX2 analytically  !
 ! A46   A(18,22,21)           103.9032         calculate D2E/DX2 analytically  !
 ! A47   A(18,22,23)           101.6757         calculate D2E/DX2 analytically  !
 ! A48   A(20,22,21)            85.9965         calculate D2E/DX2 analytically  !
 ! A49   A(20,22,23)            86.9239         calculate D2E/DX2 analytically  !
 ! A50   A(21,22,23)           154.4007         calculate D2E/DX2 analytically  !
 ! A51   A(16,23,22)           116.9719         calculate D2E/DX2 analytically  !
 ! A52   A(16,23,27)           117.4617         calculate D2E/DX2 analytically  !
 ! A53   A(16,23,28)           110.0014         calculate D2E/DX2 analytically  !
 ! A54   A(22,23,27)            84.2859         calculate D2E/DX2 analytically  !
 ! A55   A(22,23,28)           115.0264         calculate D2E/DX2 analytically  !
 ! A56   A(27,23,28)           111.093          calculate D2E/DX2 analytically  !
 ! A57   A(20,27,23)            83.6752         calculate D2E/DX2 analytically  !
 ! A58   A(20,27,25)           114.9969         calculate D2E/DX2 analytically  !
 ! A59   A(20,27,29)           117.5702         calculate D2E/DX2 analytically  !
 ! A60   A(23,27,25)           111.127          calculate D2E/DX2 analytically  !
 ! A61   A(23,27,29)           117.3057         calculate D2E/DX2 analytically  !
 ! A62   A(25,27,29)           110.0245         calculate D2E/DX2 analytically  !
 ! A63   L(2,15,19,5,-1)       178.2626         calculate D2E/DX2 analytically  !
 ! A64   L(2,15,19,5,-2)       201.9295         calculate D2E/DX2 analytically  !
 ! D1    D(10,1,7,4)           122.6702         calculate D2E/DX2 analytically  !
 ! D2    D(10,1,7,8)          -115.9342         calculate D2E/DX2 analytically  !
 ! D3    D(10,1,7,9)             5.5626         calculate D2E/DX2 analytically  !
 ! D4    D(14,1,7,4)           -76.4176         calculate D2E/DX2 analytically  !
 ! D5    D(14,1,7,8)            44.978          calculate D2E/DX2 analytically  !
 ! D6    D(14,1,7,9)           166.4748         calculate D2E/DX2 analytically  !
 ! D7    D(7,1,14,2)            76.1172         calculate D2E/DX2 analytically  !
 ! D8    D(7,1,14,13)         -152.1856         calculate D2E/DX2 analytically  !
 ! D9    D(10,1,14,2)         -122.9383         calculate D2E/DX2 analytically  !
 ! D10   D(10,1,14,13)           8.7589         calculate D2E/DX2 analytically  !
 ! D11   D(12,2,3,4)           155.6641         calculate D2E/DX2 analytically  !
 ! D12   D(12,2,3,11)           -5.2025         calculate D2E/DX2 analytically  !
 ! D13   D(14,2,3,4)           -74.5157         calculate D2E/DX2 analytically  !
 ! D14   D(14,2,3,11)          124.6176         calculate D2E/DX2 analytically  !
 ! D15   D(15,2,3,4)            -1.3954         calculate D2E/DX2 analytically  !
 ! D16   D(15,2,3,11)         -162.2621         calculate D2E/DX2 analytically  !
 ! D17   D(3,2,14,1)            -0.2465         calculate D2E/DX2 analytically  !
 ! D18   D(3,2,14,13)         -133.0335         calculate D2E/DX2 analytically  !
 ! D19   D(12,2,14,1)          130.4366         calculate D2E/DX2 analytically  !
 ! D20   D(12,2,14,13)          -2.3505         calculate D2E/DX2 analytically  !
 ! D21   D(15,2,14,1)         -116.308          calculate D2E/DX2 analytically  !
 ! D22   D(15,2,14,13)         110.905          calculate D2E/DX2 analytically  !
 ! D23   D(3,2,15,21)           85.4152         calculate D2E/DX2 analytically  !
 ! D24   D(12,2,15,21)         -71.7809         calculate D2E/DX2 analytically  !
 ! D25   D(14,2,15,21)         175.9325         calculate D2E/DX2 analytically  !
 ! D26   D(3,2,19,17)          -29.6814         calculate D2E/DX2 analytically  !
 ! D27   D(3,2,19,20)         -172.3674         calculate D2E/DX2 analytically  !
 ! D28   D(12,2,19,17)         163.3735         calculate D2E/DX2 analytically  !
 ! D29   D(12,2,19,20)          20.6876         calculate D2E/DX2 analytically  !
 ! D30   D(14,2,19,17)          57.6891         calculate D2E/DX2 analytically  !
 ! D31   D(14,2,19,20)         -84.9969         calculate D2E/DX2 analytically  !
 ! D32   D(2,3,4,5)            -48.8717         calculate D2E/DX2 analytically  !
 ! D33   D(2,3,4,6)           -170.0046         calculate D2E/DX2 analytically  !
 ! D34   D(2,3,4,7)             73.1515         calculate D2E/DX2 analytically  !
 ! D35   D(11,3,4,5)           111.9495         calculate D2E/DX2 analytically  !
 ! D36   D(11,3,4,6)            -9.1835         calculate D2E/DX2 analytically  !
 ! D37   D(11,3,4,7)          -126.0273         calculate D2E/DX2 analytically  !
 ! D38   D(3,4,7,1)              1.1766         calculate D2E/DX2 analytically  !
 ! D39   D(3,4,7,8)           -117.6784         calculate D2E/DX2 analytically  !
 ! D40   D(3,4,7,9)            117.5649         calculate D2E/DX2 analytically  !
 ! D41   D(5,4,7,1)            120.7719         calculate D2E/DX2 analytically  !
 ! D42   D(5,4,7,8)              1.9169         calculate D2E/DX2 analytically  !
 ! D43   D(5,4,7,9)           -122.8398         calculate D2E/DX2 analytically  !
 ! D44   D(6,4,7,1)           -114.7841         calculate D2E/DX2 analytically  !
 ! D45   D(6,4,7,8)            126.3609         calculate D2E/DX2 analytically  !
 ! D46   D(6,4,7,9)              1.6043         calculate D2E/DX2 analytically  !
 ! D47   D(2,15,21,22)         104.0342         calculate D2E/DX2 analytically  !
 ! D48   D(2,15,21,24)         -36.6863         calculate D2E/DX2 analytically  !
 ! D49   D(15,19,20,22)        -52.7058         calculate D2E/DX2 analytically  !
 ! D50   D(15,19,20,26)       -159.2353         calculate D2E/DX2 analytically  !
 ! D51   D(15,19,20,27)         26.9564         calculate D2E/DX2 analytically  !
 ! D52   D(17,19,20,22)        171.3566         calculate D2E/DX2 analytically  !
 ! D53   D(17,19,20,26)         64.827          calculate D2E/DX2 analytically  !
 ! D54   D(17,19,20,27)       -108.9812         calculate D2E/DX2 analytically  !
 ! D55   D(21,19,20,22)         17.1117         calculate D2E/DX2 analytically  !
 ! D56   D(21,19,20,26)        -89.4179         calculate D2E/DX2 analytically  !
 ! D57   D(21,19,20,27)         96.7739         calculate D2E/DX2 analytically  !
 ! D58   D(17,19,21,22)       -170.7822         calculate D2E/DX2 analytically  !
 ! D59   D(17,19,21,24)          0.5673         calculate D2E/DX2 analytically  !
 ! D60   D(20,19,21,22)        -16.2936         calculate D2E/DX2 analytically  !
 ! D61   D(20,19,21,24)        155.0559         calculate D2E/DX2 analytically  !
 ! D62   D(19,20,22,18)         88.1515         calculate D2E/DX2 analytically  !
 ! D63   D(19,20,22,21)        -15.1793         calculate D2E/DX2 analytically  !
 ! D64   D(19,20,22,23)       -170.5619         calculate D2E/DX2 analytically  !
 ! D65   D(26,20,22,18)       -172.399          calculate D2E/DX2 analytically  !
 ! D66   D(26,20,22,21)         84.2703         calculate D2E/DX2 analytically  !
 ! D67   D(26,20,22,23)        -71.1123         calculate D2E/DX2 analytically  !
 ! D68   D(27,20,22,18)        -69.9841         calculate D2E/DX2 analytically  !
 ! D69   D(27,20,22,21)       -173.3149         calculate D2E/DX2 analytically  !
 ! D70   D(27,20,22,23)         31.3025         calculate D2E/DX2 analytically  !
 ! D71   D(19,20,27,23)       -110.4197         calculate D2E/DX2 analytically  !
 ! D72   D(19,20,27,25)         -0.0275         calculate D2E/DX2 analytically  !
 ! D73   D(19,20,27,29)        132.0123         calculate D2E/DX2 analytically  !
 ! D74   D(22,20,27,23)        -30.7844         calculate D2E/DX2 analytically  !
 ! D75   D(22,20,27,25)         79.6078         calculate D2E/DX2 analytically  !
 ! D76   D(22,20,27,29)       -148.3524         calculate D2E/DX2 analytically  !
 ! D77   D(26,20,27,23)         75.8317         calculate D2E/DX2 analytically  !
 ! D78   D(26,20,27,25)       -173.7761         calculate D2E/DX2 analytically  !
 ! D79   D(26,20,27,29)        -41.7363         calculate D2E/DX2 analytically  !
 ! D80   D(15,21,22,18)        -20.5975         calculate D2E/DX2 analytically  !
 ! D81   D(15,21,22,20)         87.4343         calculate D2E/DX2 analytically  !
 ! D82   D(15,21,22,23)        161.7353         calculate D2E/DX2 analytically  !
 ! D83   D(19,21,22,18)        -91.0463         calculate D2E/DX2 analytically  !
 ! D84   D(19,21,22,20)         16.9855         calculate D2E/DX2 analytically  !
 ! D85   D(19,21,22,23)         91.2865         calculate D2E/DX2 analytically  !
 ! D86   D(24,21,22,18)         98.0293         calculate D2E/DX2 analytically  !
 ! D87   D(24,21,22,20)       -153.9389         calculate D2E/DX2 analytically  !
 ! D88   D(24,21,22,23)        -79.6379         calculate D2E/DX2 analytically  !
 ! D89   D(18,22,23,16)        -40.3921         calculate D2E/DX2 analytically  !
 ! D90   D(18,22,23,27)         77.5838         calculate D2E/DX2 analytically  !
 ! D91   D(18,22,23,28)       -171.7796         calculate D2E/DX2 analytically  !
 ! D92   D(20,22,23,16)       -148.6061         calculate D2E/DX2 analytically  !
 ! D93   D(20,22,23,27)        -30.6302         calculate D2E/DX2 analytically  !
 ! D94   D(20,22,23,28)         80.0064         calculate D2E/DX2 analytically  !
 ! D95   D(21,22,23,16)        137.2956         calculate D2E/DX2 analytically  !
 ! D96   D(21,22,23,27)       -104.7285         calculate D2E/DX2 analytically  !
 ! D97   D(21,22,23,28)          5.9081         calculate D2E/DX2 analytically  !
 ! D98   D(16,23,27,20)        146.8683         calculate D2E/DX2 analytically  !
 ! D99   D(16,23,27,25)         32.4771         calculate D2E/DX2 analytically  !
 ! D100  D(16,23,27,29)        -95.3021         calculate D2E/DX2 analytically  !
 ! D101  D(22,23,27,20)         29.3715         calculate D2E/DX2 analytically  !
 ! D102  D(22,23,27,25)        -85.0197         calculate D2E/DX2 analytically  !
 ! D103  D(22,23,27,29)        147.2011         calculate D2E/DX2 analytically  !
 ! D104  D(28,23,27,20)        -85.279          calculate D2E/DX2 analytically  !
 ! D105  D(28,23,27,25)        160.3297         calculate D2E/DX2 analytically  !
 ! D106  D(28,23,27,29)         32.5505         calculate D2E/DX2 analytically  !
 --------------------------------------------------------------------------------
 Trust Radius=5.00D-02 FncErr=1.00D-07 GrdErr=1.00D-06 EigMax=2.50D+02 EigMin=1.00D-04
 Number of steps in this run=    174 maximum allowed number of steps=    174.
 Search for a saddle point of order  1.
 GradGradGradGradGradGradGradGradGradGradGradGradGradGradGradGradGradGrad

                          Input orientation:                          
 ---------------------------------------------------------------------
 Center     Atomic      Atomic             Coordinates (Angstroms)
 Number     Number       Type             X           Y           Z
 ---------------------------------------------------------------------
      1          6           0        2.840153   -0.791152    0.587379
      2          6           0        1.781181   -0.819085   -1.388130
      3          6           0        3.074676   -0.161517   -1.243210
      4          6           0        3.211167    1.181325   -0.538678
      5          1           0        2.478898    1.921406   -0.900571
      6          1           0        4.219408    1.593465   -0.685228
      7          6           0        3.002205    0.688968    0.903112
      8          1           0        2.120852    1.100830    1.420493
      9          1           0        3.887599    0.864476    1.530183
     10          1           0        3.524368   -1.505318    1.068284
     11          1           0        3.887202   -0.477502   -1.913183
     12          1           0        1.628349   -1.537330   -2.204287
     13          1           0        1.281532   -2.336329    0.204327
     14          6           0        1.597939   -1.301278    0.026993
     15         29           0        0.136557    0.118106   -0.561389
     16          1           0       -4.528417   -0.733671   -1.320193
     17          1           0       -0.541406    1.191882    1.709523
     18          1           0       -2.154558   -0.479642   -1.075850
     19          6           0       -1.207698    0.847471    0.909223
     20          6           0       -2.553772    0.075434    0.933184
     21          6           0       -1.544832    1.408175   -0.317598
     22          6           0       -2.667256    0.337384   -0.533403
     23          6           0       -4.128587   -0.216598   -0.433661
     24          1           0       -1.237496    2.332145   -0.822606
     25          1           0       -3.076409   -2.040132    0.342034
     26          1           0       -3.188609    0.825553    1.438752
     27          6           0       -3.535100   -1.121083    0.741286
     28          1           0       -4.872221    0.497704   -0.046900
     29          1           0       -4.207774   -1.367968    1.577886
 ---------------------------------------------------------------------
                    Distance matrix (angstroms):
                    1          2          3          4          5
     1  C    0.000000
     2  C    2.241616   0.000000
     3  C    1.950000   1.458262   0.000000
     4  C    2.301374   2.601551   1.522570   0.000000
     5  H    3.114879   2.869636   2.193381   1.102227   0.000000
     6  H    3.034513   3.501345   2.168344   1.099039   1.784178
     7  C    1.522072   3.002485   2.309822   1.537803   2.246336
     8  H    2.188850   3.419037   3.098163   2.243572   2.487746
     9  H    2.174195   3.973402   3.066792   2.199577   3.001683
    10  H    1.099751   3.089270   2.711279   3.146184   4.088011
    11  H    2.729011   2.197199   1.099504   2.257874   2.960314
    12  H    3.133473   1.097882   2.215489   3.559585   3.792882
    13  H    2.227915   2.255571   3.168681   4.080372   4.558815
    14  C    1.455114   1.506208   2.256818   3.014267   3.467298
    15  Cu   3.075037   2.065579   3.029128   3.253333   2.975483
    16  H    7.611699   6.310542   7.624980   8.011188   7.505197
    17  H    4.077569   4.362781   4.860697   4.374508   4.057959
    18  H    5.273567   3.962674   5.241574   5.642549   5.221558
    19  C    4.378786   4.121727   4.897933   4.661999   4.244959
    20  C    5.474028   4.998048   6.039228   6.051768   5.665513
    21  C    4.988398   4.143560   4.965939   4.766535   4.098008
    22  C    5.732478   4.675101   5.807109   5.938696   5.396929
    23  C    7.066539   6.016590   7.248821   7.472429   6.960454
    24  H    5.326375   4.400282   4.999009   4.603869   3.739836
    25  H    6.051930   5.299114   6.624050   7.119484   6.935365
    26  H    6.299567   5.949362   6.884473   6.707751   6.228480
    27  C    6.385640   5.734847   6.967650   7.242342   6.936902
    28  H    7.845009   6.913797   8.063430   8.127136   7.536221
    29  H    7.140526   6.705678   7.902417   8.125234   7.853300
                    6          7          8          9         10
     6  H    0.000000
     7  C    2.196024   0.000000
     8  H    3.013418   1.101860   0.000000
     9  H    2.355752   1.099064   1.785858   0.000000
    10  H    3.627719   2.261599   2.980925   2.441560   0.000000
    11  H    2.430460   3.174176   4.089562   3.695629   3.174461
    12  H    4.338548   4.061996   4.510152   4.981882   3.782279
    13  H    4.986552   3.549851   3.741334   4.335278   2.543092
    14  C    3.969747   2.588557   2.825845   3.491792   2.199329
    15  Cu   4.343005   3.268423   2.971705   4.359135   4.094949
    16  H    9.074314   7.979803   7.422233   9.028181   8.434904
    17  H    5.344291   3.668842   2.679449   4.444709   4.921036
    18  H    6.714000   5.645719   5.196994   6.716079   6.156259
    19  C    5.705458   4.212890   3.377104   5.133023   5.287094
    20  C    7.127387   5.589831   4.810512   6.516921   6.281785
    21  C    5.778922   4.762661   4.068496   5.763784   6.008818
    22  C    7.001923   5.859179   5.227479   6.892194   6.655611
    23  C    8.545678   7.311307   6.650488   8.323739   7.904704
    24  H    5.508387   4.863456   4.222101   5.827201   6.401324
    25  H    8.215061   6.686729   6.167677   7.638446   6.662111
    26  H    7.744655   6.215444   5.316624   7.076905   7.115776
    27  C    8.338831   6.785193   6.114574   7.724071   7.077475
    28  H    9.179644   7.933832   7.170779   8.908207   8.703932
    29  H    9.214617   7.527956   6.794943   8.397688   7.750135
                   11         12         13         14         15
    11  H    0.000000
    12  H    2.512050   0.000000
    13  H    3.837786   2.561270   0.000000
    14  C    3.111851   2.243938   1.096764   0.000000
    15  Cu   4.031059   2.768578   2.814523   2.120491   0.000000
    16  H    8.440374   6.271623   6.216766   6.298359   4.802425
    17  H    5.960152   5.241597   4.246998   3.691009   2.601859
    18  H    6.099508   4.086864   4.110091   3.996571   2.423051
    19  C    5.973235   4.839873   4.102405   3.642395   2.121719
    20  C    7.063547   5.471276   4.588833   4.466903   3.077895
    21  C    5.967300   4.722782   4.720386   4.163758   2.133256
    22  C    6.747500   4.975804   4.825548   4.603384   2.812513
    23  C    8.155362   6.166178   5.845483   5.846522   4.280162
    24  H    5.945251   5.009486   5.403217   4.686499   2.618822
    25  H    7.484631   5.373203   4.370165   4.742856   3.974583
    26  H    7.937287   6.485216   5.612794   5.424713   3.944334
    27  C    7.908918   5.959100   4.996508   5.185632   4.088229
    28  H    9.008969   7.145144   6.779641   6.716008   5.049420
    29  H    8.860539   6.956569   5.740808   6.009661   5.065385
                   16         17         18         19         20
    16  H    0.000000
    17  H    5.364997   0.000000
    18  H    2.399884   3.626921   0.000000
    19  C    4.300870   1.096834   2.568713   0.000000
    20  C    3.103479   2.428740   2.122192   1.551945   0.000000
    21  C    3.807162   2.272194   2.123809   1.390373   2.087730
    22  C    2.286945   3.206263   1.106635   2.114632   1.494113
    23  C    1.101439   4.409640   2.092460   3.386321   2.105608
    24  H    4.525150   2.862939   2.968380   2.281310   3.147718
    25  H    2.564794   4.329224   2.301159   3.485977   2.257925
    26  H    3.440646   2.686112   3.015961   2.050583   1.105122
    27  C    2.320876   3.905061   2.370513   3.052902   1.559321
    28  H    1.804372   4.724708   3.065882   3.803319   2.552270
    29  H    2.983959   4.473524   3.470899   3.788897   2.287963
                   21         22         23         24         25
    21  C    0.000000
    22  C    1.566206   0.000000
    23  C    3.054365   1.565993   0.000000
    24  H    1.096909   2.471219   3.873729   0.000000
    25  H    3.830361   2.566394   2.243670   4.884137   0.000000
    26  H    2.475120   2.097501   2.339993   3.345206   3.070428
    27  C    3.388149   2.122525   1.597128   4.432779   1.102022
    28  H    3.460311   2.263682   1.101273   4.144649   3.133181
    29  H    4.288484   3.120731   2.319104   5.317495   1.805305
                   26         27         28         29
    26  H    0.000000
    27  C    2.096641   0.000000
    28  H    2.269184   2.242677   0.000000
    29  H    2.422724   1.101518   2.561670   0.000000
 Stoichiometry    C12H16Cu(1+,3)
 Framework group  C1[X(C12H16Cu)]
 Deg. of freedom    81
 Full point group                 C1      NOp   1
 Largest Abelian subgroup         C1      NOp   1
 Largest concise Abelian subgroup C1      NOp   1
                         Standard orientation:                         
 ---------------------------------------------------------------------
 Center     Atomic      Atomic             Coordinates (Angstroms)
 Number     Number       Type             X           Y           Z
 ---------------------------------------------------------------------
      1          6           0        2.741207    0.575188   -1.156472
      2          6           0        1.825054    1.174885    0.799511
      3          6           0        3.118883    0.503636    0.755266
      4          6           0        3.233928   -0.985826    0.461176
      5          1           0        2.545426   -1.589161    1.075061
      6          1           0        4.258714   -1.337671    0.645309
      7          6           0        2.912362   -0.932870   -1.041698
      8          1           0        2.005558   -1.477157   -1.350816
      9          1           0        3.754505   -1.282668   -1.655194
     10          1           0        3.373885    1.119198   -1.872868
     11          1           0        3.969976    1.000426    1.242861
     12          1           0        1.715157    2.098981    1.382017
     13          1           0        1.180727    2.164942   -1.122007
     14          6           0        1.531252    1.225851   -0.676885
     15         29           0        0.146449    0.038069    0.403845
     16          1           0       -4.470074    1.073027    1.228388
     17          1           0       -0.667921   -1.648306   -1.402425
     18          1           0       -2.114665    0.759198    0.892224
     19          6           0       -1.282902   -1.086604   -0.688749
     20          6           0       -2.643651   -0.354797   -0.834880
     21          6           0       -1.519730   -1.267360    0.669330
     22          6           0       -2.646856   -0.180081    0.648978
     23          6           0       -4.123216    0.321056    0.502167
     24          1           0       -1.157351   -2.005097    1.395714
     25          1           0       -3.168546    1.841252   -0.843815
     26          1           0       -3.296466   -1.219356   -1.053204
     27          6           0       -3.634490    0.845876   -0.924904
     28          1           0       -4.876853   -0.474771    0.394955
     29          1           0       -4.370138    0.839431   -1.744734
 ---------------------------------------------------------------------
 Rotational constants (GHZ):           1.8837233           0.3682158           0.3635570
 Standard basis: def2SVPP (5D, 7F)
 There are   238 symmetry adapted cartesian basis functions of A   symmetry.
 There are   224 symmetry adapted basis functions of A   symmetry.
   224 basis functions,   435 primitive gaussians,   238 cartesian basis functions
    59 alpha electrons       57 beta electrons
       nuclear repulsion energy      1099.9044895703 Hartrees.
 NAtoms=   29 NActive=   29 NUniq=   29 SFac= 1.00D+00 NAtFMM=   60 NAOKFM=F Big=F
 Integral buffers will be    131072 words long.
 Raffenetti 2 integral format.
 Two-electron integral symmetry is turned on.
 Nuclear repulsion after empirical dispersion term =     1099.8831188324 Hartrees.
 Force inversion solution in PCM.
 ------------------------------------------------------------------------------
 Polarizable Continuum Model (PCM)
 =================================
 Model                : PCM.
 Atomic radii         : SMD-Coulomb.
 Polarization charges : Total charges.
 Charge compensation  : None.
 Solution method      : Matrix inversion.
 Cavity type          : VdW (van der Waals Surface) (Alpha=1.000).
 Cavity algorithm     : GePol (No added spheres)
                        Default sphere list used, NSphG=   29.
                        Lebedev-Laikov grids with approx.  5.0 points / Ang**2.
                        Smoothing algorithm: York/Karplus (Gamma=1.0000).
                        Polarization charges: spherical gaussians, with
                                              point-specific exponents (IZeta= 3).
                        Self-potential: point-specific (ISelfS= 7).
                        Self-field    : sphere-specific E.n sum rule (ISelfD= 2).
 1st derivatives      : Analytical E(r).r(x)/FMM algorithm (CHGder, D1EAlg=3).
                        Cavity 1st derivative terms included.
 2nd derivatives      : Analytical E(r).r(xy)/FMM algorithm (CHGder, D2EAlg=3).
                        Cavity 2nd derivative terms included.
 Solvent              : DiethylEther, Eps=   4.240000 Eps(inf)=   1.829527
 ------------------------------------------------------------------------------
 ------------------------------------------------------------------------------
 Atomic radii for non-electrostatic terms: SMD-CDS.
 ------------------------------------------------------------------------------
 Nuclear repulsion after PCM non-electrostatic terms =     1099.8740339904 Hartrees.
 One-electron integrals computed using PRISM.
   1 Symmetry operations used in ECPInt.
 ECPInt:  NShTT=    6555 NPrTT=   28210 LenC2=    6333 LenP2D=   19674.
 LDataN:  DoStor=T MaxTD1= 4 Len=   56
 NBasis=   224 RedAO= T EigKep=  4.66D-04  NBF=   224
 NBsUse=   224 1.00D-06 EigRej= -1.00D+00 NBFU=   224
 Initial guess from the checkpoint file:  "to-10-step-1-TS.xyz.chk"
 B after Tr=     0.000000    0.000000   -0.000000
         Rot=    1.000000   -0.000000    0.000000   -0.000000 Ang=   0.00 deg.
 Initial guess <Sx>= 0.0000 <Sy>= 0.0000 <Sz>= 1.0000 <S**2>= 2.0078 S= 1.0026
 Requested convergence on RMS density matrix=1.00D-08 within 128 cycles.
 Requested convergence on MAX density matrix=1.00D-06.
 Requested convergence on             energy=1.00D-06.
 No special actions if energy rises.
 Inv3:  Mode=1 IEnd=    13700307.
 Iteration    1 A*A^-1 deviation from unit magnitude is 6.99D-15 for   2133.
 Iteration    1 A*A^-1 deviation from orthogonality  is 2.08D-15 for    978    315.
 Iteration    1 A^-1*A deviation from unit magnitude is 6.44D-15 for   2133.
 Iteration    1 A^-1*A deviation from orthogonality  is 3.00D-13 for    872    835.
 Error on total polarization charges =  0.04792
 SCF Done:  E(UwB97XD) =  -2106.26325347     A.U. after    1 cycles
            NFock=  1  Conv=0.24D-08     -V/T= 2.0042
 <Sx>= 0.0000 <Sy>= 0.0000 <Sz>= 1.0000 <S**2>= 2.0078 S= 1.0026
 <L.S>= 0.000000000000E+00
 SMD-CDS (non-electrostatic) energy       (kcal/mol) =      -5.70
 (included in total energy above)
 Annihilation of the first spin contaminant:
 S**2 before annihilation     2.0078,   after     2.0000
 QCSCF skips out because SCF is already converged.
 DoSCS=F DFT=T ScalE2(SS,OS)=  1.000000  1.000000
 Range of M.O.s used for correlation:     1   224
 NBasis=   224 NAE=    59 NBE=    57 NFC=     0 NFV=     0
 NROrb=    224 NOA=    59 NOB=    57 NVA=   165 NVB=   167

 **** Warning!!: The largest alpha MO coefficient is  0.12567124D+02


 **** Warning!!: The largest beta MO coefficient is  0.12368753D+02

   1 Symmetry operations used in ECPInt.
 ECPInt:  NShTT=    6555 NPrTT=   28210 LenC2=    6333 LenP2D=   19674.
 LDataN:  DoStor=T MaxTD1= 5 Len=  102
 Symmetrizing basis deriv contribution to polar:
 IMax=3 JMax=2 DiffMx= 0.00D+00
 G2DrvN: will do    30 centers at a time, making    1 passes.
 Calling FoFCou, ICntrl=  3107 FMM=F I1Cent=   0 AccDes= 0.00D+00.
 NEqPCM:  Using equilibrium solvation (IEInf=0, Eps=   4.2400, EpsInf=   1.8295)
 G2PCM: DoFxE=T DoFxN=T DoGrad=T DoDP/DQ/DG/TGxP=FFFF NFrqRd=   0 IEInf=0 SqF1=F DoCFld=F IF1Alg=4.
 End of G2Drv F.D. properties file   721 does not exist.
 End of G2Drv F.D. properties file   722 does not exist.
 End of G2Drv F.D. properties file   788 does not exist.
          IDoAtm=11111111111111111111111111111
 NEqPCM:  Using equilibrium solvation (IEInf=0, Eps=   4.2400, EpsInf=   1.8295)
          Differentiating once with respect to nuclear coordinates.
 Keep R1 and R2 ints in memory in canonical form, NReq=1301419636.
          There are    90 degrees of freedom in the 1st order CPHF.  IDoFFX=6 NUNeed=     0.
     84 vectors produced by pass  0 Test12= 2.14D-14 1.11D-09 XBig12= 1.31D-01 8.30D-02.
 AX will form    84 AO Fock derivatives at one time.
     84 vectors produced by pass  1 Test12= 2.14D-14 1.11D-09 XBig12= 9.99D-03 3.27D-02.
     84 vectors produced by pass  2 Test12= 2.14D-14 1.11D-09 XBig12= 9.34D-04 5.28D-03.
     84 vectors produced by pass  3 Test12= 2.14D-14 1.11D-09 XBig12= 1.53D-05 5.50D-04.
     84 vectors produced by pass  4 Test12= 2.14D-14 1.11D-09 XBig12= 1.84D-07 4.96D-05.
     84 vectors produced by pass  5 Test12= 2.14D-14 1.11D-09 XBig12= 2.43D-09 5.20D-06.
     84 vectors produced by pass  6 Test12= 2.14D-14 1.11D-09 XBig12= 2.64D-11 5.14D-07.
     67 vectors produced by pass  7 Test12= 2.14D-14 1.11D-09 XBig12= 2.41D-13 5.03D-08.
      8 vectors produced by pass  8 Test12= 2.14D-14 1.11D-09 XBig12= 2.26D-15 3.68D-09.
 InvSVY:  IOpt=1 It=  1 EMax= 6.38D-16
 Solved reduced A of dimension   663 with    90 vectors.
 End of Minotr F.D. properties file   721 does not exist.
 End of Minotr F.D. properties file   722 does not exist.
 End of Minotr F.D. properties file   788 does not exist.

 **********************************************************************

            Population analysis using the SCF Density.

 **********************************************************************

 Orbital symmetries:
 Alpha Orbitals:
       Occupied  (A) (A) (A) (A) (A) (A) (A) (A) (A) (A) (A) (A)
                 (A) (A) (A) (A) (A) (A) (A) (A) (A) (A) (A) (A)
                 (A) (A) (A) (A) (A) (A) (A) (A) (A) (A) (A) (A)
                 (A) (A) (A) (A) (A) (A) (A) (A) (A) (A) (A) (A)
                 (A) (A) (A) (A) (A) (A) (A) (A) (A) (A) (A)
       Virtual   (A) (A) (A) (A) (A) (A) (A) (A) (A) (A) (A) (A)
                 (A) (A) (A) (A) (A) (A) (A) (A) (A) (A) (A) (A)
                 (A) (A) (A) (A) (A) (A) (A) (A) (A) (A) (A) (A)
                 (A) (A) (A) (A) (A) (A) (A) (A) (A) (A) (A) (A)
                 (A) (A) (A) (A) (A) (A) (A) (A) (A) (A) (A) (A)
                 (A) (A) (A) (A) (A) (A) (A) (A) (A) (A) (A) (A)
                 (A) (A) (A) (A) (A) (A) (A) (A) (A) (A) (A) (A)
                 (A) (A) (A) (A) (A) (A) (A) (A) (A) (A) (A) (A)
                 (A) (A) (A) (A) (A) (A) (A) (A) (A) (A) (A) (A)
                 (A) (A) (A) (A) (A) (A) (A) (A) (A) (A) (A) (A)
                 (A) (A) (A) (A) (A) (A) (A) (A) (A) (A) (A) (A)
                 (A) (A) (A) (A) (A) (A) (A) (A) (A) (A) (A) (A)
                 (A) (A) (A) (A) (A) (A) (A) (A) (A) (A) (A) (A)
                 (A) (A) (A) (A) (A) (A) (A) (A) (A)
 Beta  Orbitals:
       Occupied  (A) (A) (A) (A) (A) (A) (A) (A) (A) (A) (A) (A)
                 (A) (A) (A) (A) (A) (A) (A) (A) (A) (A) (A) (A)
                 (A) (A) (A) (A) (A) (A) (A) (A) (A) (A) (A) (A)
                 (A) (A) (A) (A) (A) (A) (A) (A) (A) (A) (A) (A)
                 (A) (A) (A) (A) (A) (A) (A) (A) (A)
       Virtual   (A) (A) (A) (A) (A) (A) (A) (A) (A) (A) (A) (A)
                 (A) (A) (A) (A) (A) (A) (A) (A) (A) (A) (A) (A)
                 (A) (A) (A) (A) (A) (A) (A) (A) (A) (A) (A) (A)
                 (A) (A) (A) (A) (A) (A) (A) (A) (A) (A) (A) (A)
                 (A) (A) (A) (A) (A) (A) (A) (A) (A) (A) (A) (A)
                 (A) (A) (A) (A) (A) (A) (A) (A) (A) (A) (A) (A)
                 (A) (A) (A) (A) (A) (A) (A) (A) (A) (A) (A) (A)
                 (A) (A) (A) (A) (A) (A) (A) (A) (A) (A) (A) (A)
                 (A) (A) (A) (A) (A) (A) (A) (A) (A) (A) (A) (A)
                 (A) (A) (A) (A) (A) (A) (A) (A) (A) (A) (A) (A)
                 (A) (A) (A) (A) (A) (A) (A) (A) (A) (A) (A) (A)
                 (A) (A) (A) (A) (A) (A) (A) (A) (A) (A) (A) (A)
                 (A) (A) (A) (A) (A) (A) (A) (A) (A) (A) (A) (A)
                 (A) (A) (A) (A) (A) (A) (A) (A) (A) (A) (A)
 The electronic state is 3-A.
 Alpha  occ. eigenvalues -- -323.32780 -39.04936 -34.24858 -34.24755 -34.24209
 Alpha  occ. eigenvalues --  -10.38794 -10.38589 -10.36774 -10.36647 -10.35699
 Alpha  occ. eigenvalues --  -10.35681 -10.33894 -10.33858 -10.33306 -10.33180
 Alpha  occ. eigenvalues --  -10.33151 -10.32997  -4.45775  -2.95250  -2.94484
 Alpha  occ. eigenvalues --   -2.93545  -1.03188  -1.03006  -0.91813  -0.90694
 Alpha  occ. eigenvalues --   -0.85601  -0.77481  -0.75044  -0.74543  -0.73911
 Alpha  occ. eigenvalues --   -0.71506  -0.66489  -0.65680  -0.63234  -0.61916
 Alpha  occ. eigenvalues --   -0.60203  -0.57171  -0.56896  -0.55087  -0.54800
 Alpha  occ. eigenvalues --   -0.54206  -0.52160  -0.50296  -0.49656  -0.47762
 Alpha  occ. eigenvalues --   -0.46386  -0.45879  -0.45245  -0.44364  -0.44038
 Alpha  occ. eigenvalues --   -0.43111  -0.41635  -0.41298  -0.40965  -0.40631
 Alpha  occ. eigenvalues --   -0.37588  -0.36522  -0.33431  -0.28313
 Alpha virt. eigenvalues --   -0.01452   0.02189   0.05926   0.07694   0.10361
 Alpha virt. eigenvalues --    0.11458   0.12601   0.13229   0.14630   0.15506
 Alpha virt. eigenvalues --    0.16241   0.16504   0.16641   0.17727   0.19479
 Alpha virt. eigenvalues --    0.19887   0.20990   0.21637   0.22116   0.22466
 Alpha virt. eigenvalues --    0.23256   0.23886   0.24726   0.25604   0.26316
 Alpha virt. eigenvalues --    0.27380   0.27592   0.28817   0.30609   0.30692
 Alpha virt. eigenvalues --    0.32799   0.36145   0.39462   0.40046   0.41474
 Alpha virt. eigenvalues --    0.43283   0.45984   0.48065   0.49120   0.49681
 Alpha virt. eigenvalues --    0.50947   0.52702   0.53616   0.54649   0.55091
 Alpha virt. eigenvalues --    0.55654   0.56195   0.56873   0.59581   0.60810
 Alpha virt. eigenvalues --    0.61342   0.62431   0.63185   0.64985   0.65362
 Alpha virt. eigenvalues --    0.65929   0.66881   0.67653   0.68302   0.70026
 Alpha virt. eigenvalues --    0.70712   0.71328   0.72538   0.72813   0.73097
 Alpha virt. eigenvalues --    0.73420   0.74314   0.74842   0.75749   0.76102
 Alpha virt. eigenvalues --    0.76689   0.76814   0.77333   0.77665   0.78360
 Alpha virt. eigenvalues --    0.78696   0.79520   0.80118   0.81036   0.81552
 Alpha virt. eigenvalues --    0.82372   0.84109   0.85599   0.86693   0.88468
 Alpha virt. eigenvalues --    0.89263   0.91651   0.93787   0.93964   0.99150
 Alpha virt. eigenvalues --    1.01720   1.03939   1.05650   1.09100   1.11244
 Alpha virt. eigenvalues --    1.14134   1.18984   1.21828   1.25066   1.27432
 Alpha virt. eigenvalues --    1.30928   1.34120   1.36955   1.37409   1.40715
 Alpha virt. eigenvalues --    1.46748   1.53168   1.53675   1.62757   1.65561
 Alpha virt. eigenvalues --    1.67306   1.69979   1.71212   1.72061   1.76623
 Alpha virt. eigenvalues --    1.77596   1.81344   1.84020   1.85136   1.88927
 Alpha virt. eigenvalues --    1.90936   1.91484   1.94606   1.96201   1.97689
 Alpha virt. eigenvalues --    1.99396   2.00740   2.00987   2.01876   2.03476
 Alpha virt. eigenvalues --    2.06250   2.07901   2.09393   2.10940   2.13426
 Alpha virt. eigenvalues --    2.15040   2.16338   2.16644   2.18184   2.22099
 Alpha virt. eigenvalues --    2.25272   2.27861   2.30094   2.32479   2.35027
 Alpha virt. eigenvalues --    2.35523   2.37212   2.41824   2.42781   2.45801
 Alpha virt. eigenvalues --    2.49130   2.51015   2.51802   2.55073   2.56013
 Alpha virt. eigenvalues --    2.62349   2.64235   2.66615   2.70231   2.71518
 Alpha virt. eigenvalues --    2.78124   2.81081   2.81875   2.86879   3.07324
  Beta  occ. eigenvalues -- -323.32756 -39.04798 -34.24704 -34.24580 -34.24172
  Beta  occ. eigenvalues --  -10.38404 -10.38180 -10.36711 -10.36642 -10.35013
  Beta  occ. eigenvalues --  -10.34891 -10.33796 -10.33757 -10.33310 -10.33177
  Beta  occ. eigenvalues --  -10.33146 -10.32997  -4.45492  -2.94852  -2.94054
  Beta  occ. eigenvalues --   -2.93472  -1.03098  -1.00968  -0.91742  -0.89061
  Beta  occ. eigenvalues --   -0.84111  -0.77428  -0.74717  -0.72781  -0.72664
  Beta  occ. eigenvalues --   -0.71427  -0.66363  -0.64729  -0.61913  -0.61569
  Beta  occ. eigenvalues --   -0.59248  -0.56838  -0.55555  -0.55041  -0.53369
  Beta  occ. eigenvalues --   -0.53148  -0.51571  -0.49709  -0.48625  -0.46759
  Beta  occ. eigenvalues --   -0.45942  -0.44669  -0.44266  -0.44042  -0.43405
  Beta  occ. eigenvalues --   -0.41617  -0.41290  -0.40827  -0.40693  -0.39268
  Beta  occ. eigenvalues --   -0.37091  -0.36301
  Beta virt. eigenvalues --   -0.09085  -0.05239   0.01175   0.05516   0.07059
  Beta virt. eigenvalues --    0.07855   0.10686   0.11534   0.13194   0.13304
  Beta virt. eigenvalues --    0.14713   0.15603   0.16554   0.16707   0.16829
  Beta virt. eigenvalues --    0.18260   0.19619   0.20247   0.21147   0.21711
  Beta virt. eigenvalues --    0.22281   0.22657   0.23521   0.23933   0.25123
  Beta virt. eigenvalues --    0.26043   0.26559   0.27733   0.28262   0.29328
  Beta virt. eigenvalues --    0.31386   0.31868   0.33264   0.36334   0.40211
  Beta virt. eigenvalues --    0.40571   0.42722   0.43568   0.46556   0.48270
  Beta virt. eigenvalues --    0.49239   0.50351   0.51294   0.52893   0.54288
  Beta virt. eigenvalues --    0.55104   0.55661   0.56105   0.57219   0.57876
  Beta virt. eigenvalues --    0.60419   0.61041   0.62013   0.62967   0.64298
  Beta virt. eigenvalues --    0.65128   0.66266   0.66634   0.67421   0.68330
  Beta virt. eigenvalues --    0.69749   0.70294   0.71445   0.71714   0.72789
  Beta virt. eigenvalues --    0.73126   0.73453   0.73837   0.74979   0.75200
  Beta virt. eigenvalues --    0.76125   0.76607   0.77005   0.77321   0.77460
  Beta virt. eigenvalues --    0.78089   0.78667   0.78863   0.79675   0.80319
  Beta virt. eigenvalues --    0.81680   0.81864   0.82574   0.84589   0.85783
  Beta virt. eigenvalues --    0.86964   0.88909   0.89357   0.92048   0.94047
  Beta virt. eigenvalues --    0.94593   1.00065   1.02035   1.04063   1.05713
  Beta virt. eigenvalues --    1.09620   1.11870   1.14464   1.19784   1.22426
  Beta virt. eigenvalues --    1.25503   1.28220   1.31928   1.35394   1.37616
  Beta virt. eigenvalues --    1.37970   1.41045   1.47254   1.53585   1.54473
  Beta virt. eigenvalues --    1.63107   1.65659   1.68807   1.70613   1.73050
  Beta virt. eigenvalues --    1.73269   1.77879   1.78074   1.81552   1.84368
  Beta virt. eigenvalues --    1.86158   1.89637   1.91743   1.92237   1.94707
  Beta virt. eigenvalues --    1.96734   1.98506   2.00233   2.01421   2.02705
  Beta virt. eigenvalues --    2.02983   2.04191   2.06966   2.08718   2.11011
  Beta virt. eigenvalues --    2.11939   2.13871   2.15352   2.16419   2.17571
  Beta virt. eigenvalues --    2.18441   2.23570   2.26066   2.28027   2.31262
  Beta virt. eigenvalues --    2.33688   2.35221   2.35628   2.39321   2.42793
  Beta virt. eigenvalues --    2.44080   2.46645   2.50436   2.51210   2.53155
  Beta virt. eigenvalues --    2.55120   2.56067   2.63883   2.65688   2.67628
  Beta virt. eigenvalues --    2.70362   2.72541   2.78179   2.81920   2.82389
  Beta virt. eigenvalues --    2.88359   3.07346
          Condensed to atoms (all electrons):
               1          2          3          4          5          6
     1  C    5.319918  -0.087697   0.267150  -0.123388   0.004738   0.002253
     2  C   -0.087697   5.481386   0.179633  -0.000539  -0.016300   0.007729
     3  C    0.267150   0.179633   5.301981   0.288880   0.007883  -0.010857
     4  C   -0.123388  -0.000539   0.288880   4.944025   0.332459   0.352247
     5  H    0.004738  -0.016300   0.007883   0.332459   0.542630  -0.020308
     6  H    0.002253   0.007729  -0.010857   0.352247  -0.020308   0.533670
     7  C    0.273474  -0.015978  -0.126081   0.373155  -0.007290  -0.003230
     8  H    0.009328   0.002327   0.002681  -0.004429  -0.010280   0.003599
     9  H   -0.010217  -0.001322   0.002611  -0.002361   0.003286  -0.013047
    10  H    0.390342   0.010155  -0.006737   0.008993  -0.000540   0.000057
    11  H   -0.006703  -0.037891   0.392057  -0.035188   0.003207  -0.007181
    12  H    0.006134   0.387340  -0.028094   0.005804   0.000028  -0.000159
    13  H   -0.030244  -0.027837   0.006886  -0.001109  -0.000003   0.000043
    14  C    0.167996   0.168257  -0.097961  -0.014628   0.000941  -0.001554
    15  Cu  -0.008827   0.197211  -0.020435  -0.006275   0.008254   0.000330
    16  H   -0.000000   0.000000  -0.000000  -0.000000   0.000000  -0.000000
    17  H    0.000515   0.000253  -0.000137   0.000138  -0.000040   0.000003
    18  H   -0.000010  -0.000051   0.000017   0.000002  -0.000009   0.000000
    19  C   -0.000596   0.000018  -0.000385   0.000322  -0.000174  -0.000006
    20  C    0.000005  -0.000314   0.000044  -0.000019  -0.000006   0.000000
    21  C   -0.000056   0.000887   0.000055  -0.000331   0.000102   0.000002
    22  C    0.000036   0.000243  -0.000043   0.000025   0.000015   0.000000
    23  C   -0.000000  -0.000003  -0.000000   0.000000  -0.000000   0.000000
    24  H   -0.000007   0.000100  -0.000049   0.000037   0.000041  -0.000001
    25  H    0.000004   0.000010  -0.000001   0.000000   0.000000   0.000000
    26  H    0.000002   0.000006  -0.000001   0.000001   0.000000  -0.000000
    27  C   -0.000000   0.000008   0.000001  -0.000000  -0.000000  -0.000000
    28  H    0.000000   0.000000   0.000000   0.000000  -0.000000  -0.000000
    29  H   -0.000000  -0.000000   0.000000  -0.000000   0.000000  -0.000000
               7          8          9         10         11         12
     1  C    0.273474   0.009328  -0.010217   0.390342  -0.006703   0.006134
     2  C   -0.015978   0.002327  -0.001322   0.010155  -0.037891   0.387340
     3  C   -0.126081   0.002681   0.002611  -0.006737   0.392057  -0.028094
     4  C    0.373155  -0.004429  -0.002361   0.008993  -0.035188   0.005804
     5  H   -0.007290  -0.010280   0.003286  -0.000540   0.003207   0.000028
     6  H   -0.003230   0.003599  -0.013047   0.000057  -0.007181  -0.000159
     7  C    4.967103   0.328475   0.351308  -0.034152   0.009230  -0.001435
     8  H    0.328475   0.538764  -0.020019   0.003400  -0.000560   0.000018
     9  H    0.351308  -0.020019   0.531930  -0.006935  -0.000023   0.000048
    10  H   -0.034152   0.003400  -0.006935   0.499518  -0.001552  -0.000010
    11  H    0.009230  -0.000560  -0.000023  -0.001552   0.501320  -0.006742
    12  H   -0.001435   0.000018   0.000048  -0.000010  -0.006742   0.505770
    13  H    0.004882   0.000157  -0.000145  -0.005852  -0.000099  -0.006696
    14  C    0.007310  -0.017247   0.007270  -0.038191   0.009847  -0.031329
    15  Cu  -0.000062   0.005335   0.000171  -0.000102   0.001497  -0.006526
    16  H   -0.000000   0.000000   0.000000   0.000000   0.000000   0.000000
    17  H    0.000000   0.003787  -0.000022   0.000007  -0.000000   0.000009
    18  H   -0.000002   0.000005   0.000000   0.000001  -0.000000   0.000016
    19  C   -0.001633   0.001355   0.000020   0.000013  -0.000002   0.000024
    20  C    0.000074   0.000052  -0.000000  -0.000000  -0.000000  -0.000017
    21  C    0.000246  -0.000229  -0.000003  -0.000003  -0.000001   0.000104
    22  C   -0.000016   0.000017   0.000000  -0.000000   0.000000  -0.000002
    23  C    0.000000  -0.000000   0.000000   0.000000   0.000000   0.000002
    24  H   -0.000012  -0.000013   0.000001   0.000000   0.000000   0.000001
    25  H   -0.000001   0.000000   0.000000   0.000000  -0.000000   0.000004
    26  H   -0.000003   0.000005   0.000000   0.000000  -0.000000   0.000000
    27  C    0.000001  -0.000001  -0.000000  -0.000000   0.000000  -0.000005
    28  H   -0.000000  -0.000000  -0.000000  -0.000000  -0.000000  -0.000000
    29  H    0.000000   0.000000   0.000000  -0.000000  -0.000000   0.000000
              13         14         15         16         17         18
     1  C   -0.030244   0.167996  -0.008827  -0.000000   0.000515  -0.000010
     2  C   -0.027837   0.168257   0.197211   0.000000   0.000253  -0.000051
     3  C    0.006886  -0.097961  -0.020435  -0.000000  -0.000137   0.000017
     4  C   -0.001109  -0.014628  -0.006275  -0.000000   0.000138   0.000002
     5  H   -0.000003   0.000941   0.008254   0.000000  -0.000040  -0.000009
     6  H    0.000043  -0.001554   0.000330  -0.000000   0.000003   0.000000
     7  C    0.004882   0.007310  -0.000062  -0.000000   0.000000  -0.000002
     8  H    0.000157  -0.017247   0.005335   0.000000   0.003787   0.000005
     9  H   -0.000145   0.007270   0.000171   0.000000  -0.000022   0.000000
    10  H   -0.005852  -0.038191  -0.000102   0.000000   0.000007   0.000001
    11  H   -0.000099   0.009847   0.001497   0.000000  -0.000000  -0.000000
    12  H   -0.006696  -0.031329  -0.006526   0.000000   0.000009   0.000016
    13  H    0.499971   0.388084  -0.004166   0.000000   0.000007  -0.000007
    14  C    0.388084   5.467599   0.145494   0.000000  -0.000877   0.000251
    15  Cu  -0.004166   0.145494  27.963478  -0.000125  -0.004220   0.003454
    16  H    0.000000   0.000000  -0.000125   0.557497   0.000025  -0.006920
    17  H    0.000007  -0.000877  -0.004220   0.000025   0.491128  -0.000337
    18  H   -0.000007   0.000251   0.003454  -0.006920  -0.000337   0.574166
    19  C   -0.000265   0.006257   0.175018  -0.000878   0.387486  -0.029538
    20  C    0.000026  -0.000381  -0.032574   0.012525  -0.028772  -0.026325
    21  C    0.000158  -0.001019   0.165449   0.000709  -0.039452  -0.049461
    22  C   -0.000012  -0.000746  -0.016364  -0.000758   0.015525   0.389039
    23  C    0.000003  -0.000014   0.001662   0.349530  -0.000751  -0.038924
    24  H    0.000001   0.000013   0.002498   0.000079  -0.001015   0.000857
    25  H    0.000011   0.000053   0.001695  -0.004394  -0.000029   0.005979
    26  H    0.000000   0.000011   0.002595   0.000512  -0.001023   0.006544
    27  C   -0.000011   0.000004  -0.002457  -0.020139  -0.001046   0.003493
    28  H   -0.000000   0.000000   0.000146  -0.023713  -0.000012   0.005396
    29  H    0.000000   0.000000  -0.000186   0.001761   0.000102   0.000137
              19         20         21         22         23         24
     1  C   -0.000596   0.000005  -0.000056   0.000036  -0.000000  -0.000007
     2  C    0.000018  -0.000314   0.000887   0.000243  -0.000003   0.000100
     3  C   -0.000385   0.000044   0.000055  -0.000043  -0.000000  -0.000049
     4  C    0.000322  -0.000019  -0.000331   0.000025   0.000000   0.000037
     5  H   -0.000174  -0.000006   0.000102   0.000015  -0.000000   0.000041
     6  H   -0.000006   0.000000   0.000002   0.000000   0.000000  -0.000001
     7  C   -0.001633   0.000074   0.000246  -0.000016   0.000000  -0.000012
     8  H    0.001355   0.000052  -0.000229   0.000017  -0.000000  -0.000013
     9  H    0.000020  -0.000000  -0.000003   0.000000   0.000000   0.000001
    10  H    0.000013  -0.000000  -0.000003  -0.000000   0.000000   0.000000
    11  H   -0.000002  -0.000000  -0.000001   0.000000   0.000000   0.000000
    12  H    0.000024  -0.000017   0.000104  -0.000002   0.000002   0.000001
    13  H   -0.000265   0.000026   0.000158  -0.000012   0.000003   0.000001
    14  C    0.006257  -0.000381  -0.001019  -0.000746  -0.000014   0.000013
    15  Cu   0.175018  -0.032574   0.165449  -0.016364   0.001662   0.002498
    16  H   -0.000878   0.012525   0.000709  -0.000758   0.349530   0.000079
    17  H    0.387486  -0.028772  -0.039452   0.015525  -0.000751  -0.001015
    18  H   -0.029538  -0.026325  -0.049461   0.389039  -0.038924   0.000857
    19  C    5.461296   0.143657   0.187127  -0.103049   0.022637  -0.039338
    20  C    0.143657   5.225117  -0.108482   0.453527  -0.194507   0.011056
    21  C    0.187127  -0.108482   5.563597   0.078025   0.025897   0.390037
    22  C   -0.103049   0.453527   0.078025   5.352535   0.243441  -0.027736
    23  C    0.022637  -0.194507   0.025897   0.243441   5.020699  -0.001461
    24  H   -0.039338   0.011056   0.390037  -0.027736  -0.001461   0.491802
    25  H   -0.004978  -0.015684   0.000005  -0.001957  -0.021735   0.000012
    26  H   -0.055170   0.408234  -0.009866  -0.037330  -0.000467   0.000533
    27  C    0.014148   0.257373   0.023563  -0.202895   0.427490  -0.000929
    28  H   -0.000588  -0.001868  -0.004286  -0.019132   0.370765   0.000063
    29  H    0.000721  -0.002450  -0.001102   0.013903  -0.019807   0.000028
              25         26         27         28         29
     1  C    0.000004   0.000002  -0.000000   0.000000  -0.000000
     2  C    0.000010   0.000006   0.000008   0.000000  -0.000000
     3  C   -0.000001  -0.000001   0.000001   0.000000   0.000000
     4  C    0.000000   0.000001  -0.000000   0.000000  -0.000000
     5  H    0.000000   0.000000  -0.000000  -0.000000   0.000000
     6  H    0.000000  -0.000000  -0.000000  -0.000000  -0.000000
     7  C   -0.000001  -0.000003   0.000001  -0.000000   0.000000
     8  H    0.000000   0.000005  -0.000001  -0.000000   0.000000
     9  H    0.000000   0.000000  -0.000000  -0.000000   0.000000
    10  H    0.000000   0.000000  -0.000000  -0.000000  -0.000000
    11  H   -0.000000  -0.000000   0.000000  -0.000000  -0.000000
    12  H    0.000004   0.000000  -0.000005  -0.000000   0.000000
    13  H    0.000011   0.000000  -0.000011  -0.000000   0.000000
    14  C    0.000053   0.000011   0.000004   0.000000   0.000000
    15  Cu   0.001695   0.002595  -0.002457   0.000146  -0.000186
    16  H   -0.004394   0.000512  -0.020139  -0.023713   0.001761
    17  H   -0.000029  -0.001023  -0.001046  -0.000012   0.000102
    18  H    0.005979   0.006544   0.003493   0.005396   0.000137
    19  C   -0.004978  -0.055170   0.014148  -0.000588   0.000721
    20  C   -0.015684   0.408234   0.257373  -0.001868  -0.002450
    21  C    0.000005  -0.009866   0.023563  -0.004286  -0.001102
    22  C   -0.001957  -0.037330  -0.202895  -0.019132   0.013903
    23  C   -0.021735  -0.000467   0.427490   0.370765  -0.019807
    24  H    0.000012   0.000533  -0.000929   0.000063   0.000028
    25  H    0.555577   0.006222   0.361081   0.003951  -0.023348
    26  H    0.006222   0.577379  -0.054995   0.006545  -0.005815
    27  C    0.361081  -0.054995   5.054221  -0.019453   0.352181
    28  H    0.003951   0.006545  -0.019453   0.538965  -0.004642
    29  H   -0.023348  -0.005815   0.352181  -0.004642   0.550355
          Atomic-Atomic Spin Densities.
               1          2          3          4          5          6
     1  C    0.432168  -0.097503   0.187302  -0.076874   0.005680   0.002931
     2  C   -0.097503   0.715401  -0.097145   0.006393   0.002379  -0.000095
     3  C    0.187302  -0.097145   0.428094  -0.052858   0.002342   0.003027
     4  C   -0.076874   0.006393  -0.052858   0.143482  -0.017067  -0.011039
     5  H    0.005680   0.002379   0.002342  -0.017067   0.022089   0.003250
     6  H    0.002931  -0.000095   0.003027  -0.011039   0.003250   0.005205
     7  C   -0.069432   0.015543  -0.077135   0.018231  -0.005093   0.000380
     8  H    0.005368  -0.001470   0.004890  -0.003132   0.001843   0.000162
     9  H    0.004155  -0.000301   0.003166   0.000286   0.000303  -0.000109
    10  H   -0.004801   0.005882  -0.001046   0.003844  -0.000117  -0.000227
    11  H   -0.001702  -0.004635  -0.005125  -0.005030  -0.000057   0.000842
    12  H    0.001949   0.000722   0.003865   0.000430   0.000058  -0.000016
    13  H    0.003086  -0.012894   0.001871  -0.000649   0.000048   0.000009
    14  C   -0.107986  -0.048430  -0.096820   0.017348  -0.001812  -0.000295
    15  Cu   0.017275   0.029605   0.010009  -0.017411   0.005783   0.000652
    16  H   -0.000000  -0.000000  -0.000000   0.000000  -0.000000  -0.000000
    17  H    0.000011  -0.000031   0.000000   0.000013  -0.000004  -0.000000
    18  H    0.000005  -0.000565   0.000006   0.000007  -0.000001  -0.000000
    19  C    0.000043  -0.003000  -0.000054   0.000507  -0.000235  -0.000006
    20  C   -0.000004   0.000103  -0.000000  -0.000004   0.000002   0.000000
    21  C   -0.000024   0.004241   0.000008  -0.000355   0.000141   0.000004
    22  C   -0.000002  -0.000383  -0.000004   0.000009  -0.000010  -0.000000
    23  C   -0.000000   0.000001  -0.000000  -0.000000  -0.000000   0.000000
    24  H   -0.000003  -0.000218  -0.000005   0.000051  -0.000068  -0.000001
    25  H    0.000000  -0.000013   0.000000   0.000000  -0.000000  -0.000000
    26  H    0.000000  -0.000005  -0.000000   0.000000  -0.000000  -0.000000
    27  C   -0.000000   0.000004   0.000000  -0.000000   0.000000   0.000000
    28  H    0.000000  -0.000000  -0.000000   0.000000  -0.000000  -0.000000
    29  H   -0.000000  -0.000000  -0.000000   0.000000  -0.000000  -0.000000
               7          8          9         10         11         12
     1  C   -0.069432   0.005368   0.004155  -0.004801  -0.001702   0.001949
     2  C    0.015543  -0.001470  -0.000301   0.005882  -0.004635   0.000722
     3  C   -0.077135   0.004890   0.003166  -0.001046  -0.005125   0.003865
     4  C    0.018231  -0.003132   0.000286   0.003844  -0.005030   0.000430
     5  H   -0.005093   0.001843   0.000303  -0.000117  -0.000057   0.000058
     6  H    0.000380   0.000162  -0.000109  -0.000227   0.000842  -0.000016
     7  C    0.159260  -0.019451  -0.012726  -0.005458   0.003587  -0.000944
     8  H   -0.019451   0.018873   0.003681   0.000043  -0.000115   0.000068
     9  H   -0.012726   0.003681   0.006681   0.000830  -0.000198   0.000015
    10  H   -0.005458   0.000043   0.000830   0.011079  -0.000611   0.000184
    11  H    0.003587  -0.000115  -0.000198  -0.000611   0.005809  -0.002057
    12  H   -0.000944   0.000068   0.000015   0.000184  -0.002057   0.011239
    13  H   -0.000143   0.000072   0.000003  -0.001569   0.000079   0.000098
    14  C    0.007862   0.002490  -0.000100  -0.005662   0.005688  -0.016386
    15  Cu  -0.004567   0.003236  -0.000097  -0.001343   0.000670  -0.001258
    16  H    0.000000  -0.000000  -0.000000   0.000000   0.000000  -0.000000
    17  H   -0.000002  -0.000156  -0.000000   0.000001  -0.000000   0.000001
    18  H   -0.000009   0.000006   0.000000   0.000001  -0.000001   0.000075
    19  C   -0.000436  -0.000135   0.000008   0.000031  -0.000004   0.000062
    20  C    0.000010  -0.000012  -0.000000  -0.000001   0.000000  -0.000002
    21  C    0.000335  -0.000181  -0.000005  -0.000006   0.000006  -0.000143
    22  C   -0.000003  -0.000000   0.000000   0.000000  -0.000000   0.000012
    23  C    0.000000  -0.000000  -0.000000  -0.000000   0.000000  -0.000000
    24  H   -0.000018   0.000011   0.000000   0.000000  -0.000001   0.000005
    25  H   -0.000000   0.000000   0.000000   0.000000  -0.000000   0.000002
    26  H   -0.000001   0.000002   0.000000   0.000000  -0.000000   0.000000
    27  C   -0.000000   0.000000   0.000000  -0.000000   0.000000  -0.000000
    28  H   -0.000000   0.000000   0.000000   0.000000  -0.000000   0.000000
    29  H    0.000000  -0.000000  -0.000000   0.000000  -0.000000  -0.000000
              13         14         15         16         17         18
     1  C    0.003086  -0.107986   0.017275  -0.000000   0.000011   0.000005
     2  C   -0.012894  -0.048430   0.029605  -0.000000  -0.000031  -0.000565
     3  C    0.001871  -0.096820   0.010009  -0.000000   0.000000   0.000006
     4  C   -0.000649   0.017348  -0.017411   0.000000   0.000013   0.000007
     5  H    0.000048  -0.001812   0.005783  -0.000000  -0.000004  -0.000001
     6  H    0.000009  -0.000295   0.000652  -0.000000  -0.000000  -0.000000
     7  C   -0.000143   0.007862  -0.004567   0.000000  -0.000002  -0.000009
     8  H    0.000072   0.002490   0.003236  -0.000000  -0.000156   0.000006
     9  H    0.000003  -0.000100  -0.000097  -0.000000  -0.000000   0.000000
    10  H   -0.001569  -0.005662  -0.001343   0.000000   0.000001   0.000001
    11  H    0.000079   0.005688   0.000670   0.000000  -0.000000  -0.000001
    12  H    0.000098  -0.016386  -0.001258  -0.000000   0.000001   0.000075
    13  H    0.001063  -0.001553   0.004737  -0.000000  -0.000002  -0.000023
    14  C   -0.001553   0.852412  -0.013481   0.000000  -0.000038   0.000577
    15  Cu   0.004737  -0.013481   0.108228  -0.000002   0.000012  -0.002508
    16  H   -0.000000   0.000000  -0.000002  -0.000151  -0.000000   0.000012
    17  H   -0.000002  -0.000038   0.000012  -0.000000   0.001162   0.000006
    18  H   -0.000023   0.000577  -0.002508   0.000012   0.000006   0.004696
    19  C   -0.000361   0.008584  -0.004048  -0.000001   0.000070   0.002464
    20  C    0.000032  -0.000469   0.000548   0.000019   0.000166  -0.000894
    21  C    0.000095  -0.004388   0.017921   0.000008   0.000298  -0.004945
    22  C   -0.000024   0.000334  -0.004006   0.000000  -0.000022   0.003554
    23  C   -0.000000  -0.000006   0.000106  -0.000019  -0.000000  -0.000816
    24  H   -0.000002   0.000099  -0.002496  -0.000000   0.000012   0.000168
    25  H   -0.000018   0.000084  -0.000318  -0.000007   0.000001   0.000367
    26  H   -0.000002   0.000032  -0.000552  -0.000001  -0.000021   0.000210
    27  C    0.000008  -0.000022   0.000518   0.000010  -0.000007  -0.000177
    28  H   -0.000000   0.000000  -0.000048   0.000024   0.000000   0.000061
    29  H   -0.000000   0.000000  -0.000009   0.000001   0.000000  -0.000003
              19         20         21         22         23         24
     1  C    0.000043  -0.000004  -0.000024  -0.000002  -0.000000  -0.000003
     2  C   -0.003000   0.000103   0.004241  -0.000383   0.000001  -0.000218
     3  C   -0.000054  -0.000000   0.000008  -0.000004  -0.000000  -0.000005
     4  C    0.000507  -0.000004  -0.000355   0.000009  -0.000000   0.000051
     5  H   -0.000235   0.000002   0.000141  -0.000010  -0.000000  -0.000068
     6  H   -0.000006   0.000000   0.000004  -0.000000   0.000000  -0.000001
     7  C   -0.000436   0.000010   0.000335  -0.000003   0.000000  -0.000018
     8  H   -0.000135  -0.000012  -0.000181  -0.000000  -0.000000   0.000011
     9  H    0.000008  -0.000000  -0.000005   0.000000  -0.000000   0.000000
    10  H    0.000031  -0.000001  -0.000006   0.000000  -0.000000   0.000000
    11  H   -0.000004   0.000000   0.000006  -0.000000   0.000000  -0.000001
    12  H    0.000062  -0.000002  -0.000143   0.000012  -0.000000   0.000005
    13  H   -0.000361   0.000032   0.000095  -0.000024  -0.000000  -0.000002
    14  C    0.008584  -0.000469  -0.004388   0.000334  -0.000006   0.000099
    15  Cu  -0.004048   0.000548   0.017921  -0.004006   0.000106  -0.002496
    16  H   -0.000001   0.000019   0.000008   0.000000  -0.000019  -0.000000
    17  H    0.000070   0.000166   0.000298  -0.000022  -0.000000   0.000012
    18  H    0.002464  -0.000894  -0.004945   0.003554  -0.000816   0.000168
    19  C    0.019924  -0.004023  -0.031971   0.007020  -0.000267   0.001412
    20  C   -0.004023   0.004024   0.003474  -0.001001   0.000293  -0.000154
    21  C   -0.031971   0.003474   0.107273  -0.014260   0.000420  -0.001292
    22  C    0.007020  -0.001001  -0.014260   0.001186   0.000388   0.000635
    23  C   -0.000267   0.000293   0.000420   0.000388   0.002950  -0.000024
    24  H    0.001412  -0.000154  -0.001292   0.000635  -0.000024  -0.000196
    25  H    0.000220  -0.000181  -0.000178   0.000187  -0.000143   0.000003
    26  H    0.000840  -0.001246  -0.000243   0.000210  -0.000607   0.000079
    27  C   -0.000357  -0.000151   0.000305  -0.000092   0.000206  -0.000001
    28  H    0.000026  -0.000032  -0.000020  -0.000006  -0.000291   0.000006
    29  H    0.000016   0.000035  -0.000014  -0.000019   0.000043  -0.000000
              25         26         27         28         29
     1  C    0.000000   0.000000  -0.000000   0.000000  -0.000000
     2  C   -0.000013  -0.000005   0.000004  -0.000000  -0.000000
     3  C    0.000000  -0.000000   0.000000  -0.000000  -0.000000
     4  C    0.000000   0.000000  -0.000000   0.000000   0.000000
     5  H   -0.000000  -0.000000   0.000000  -0.000000  -0.000000
     6  H   -0.000000  -0.000000   0.000000  -0.000000  -0.000000
     7  C   -0.000000  -0.000001  -0.000000  -0.000000   0.000000
     8  H    0.000000   0.000002   0.000000   0.000000  -0.000000
     9  H    0.000000   0.000000   0.000000   0.000000  -0.000000
    10  H    0.000000   0.000000  -0.000000   0.000000   0.000000
    11  H   -0.000000  -0.000000   0.000000  -0.000000  -0.000000
    12  H    0.000002   0.000000  -0.000000   0.000000  -0.000000
    13  H   -0.000018  -0.000002   0.000008  -0.000000  -0.000000
    14  C    0.000084   0.000032  -0.000022   0.000000   0.000000
    15  Cu  -0.000318  -0.000552   0.000518  -0.000048  -0.000009
    16  H   -0.000007  -0.000001   0.000010   0.000024   0.000001
    17  H    0.000001  -0.000021  -0.000007   0.000000   0.000000
    18  H    0.000367   0.000210  -0.000177   0.000061  -0.000003
    19  C    0.000220   0.000840  -0.000357   0.000026   0.000016
    20  C   -0.000181  -0.001246  -0.000151  -0.000032   0.000035
    21  C   -0.000178  -0.000243   0.000305  -0.000020  -0.000014
    22  C    0.000187   0.000210  -0.000092  -0.000006  -0.000019
    23  C   -0.000143  -0.000607   0.000206  -0.000291   0.000043
    24  H    0.000003   0.000079  -0.000001   0.000006  -0.000000
    25  H    0.000284   0.000094  -0.000231   0.000038  -0.000006
    26  H    0.000094   0.002772   0.000019   0.000213  -0.000010
    27  C   -0.000231   0.000019   0.000255  -0.000002  -0.000001
    28  H    0.000038   0.000213  -0.000002   0.000162  -0.000013
    29  H   -0.000006  -0.000010  -0.000001  -0.000013  -0.000085
 Mulliken charges and spin densities:
               1          2
     1  C   -0.174148   0.301640
     2  C   -0.247628   0.513587
     3  C   -0.159096   0.314389
     4  C   -0.117821   0.006181
     5  H    0.151367   0.019453
     6  H    0.156410   0.004676
     7  C   -0.125361   0.009788
     8  H    0.153473   0.016090
     9  H    0.157450   0.005593
    10  H    0.181590   0.001056
    11  H    0.178786  -0.002854
    12  H    0.175716  -0.002021
    13  H    0.176219  -0.006036
    14  C   -0.165442   0.598063
    15  Cu   0.428032   0.147156
    16  H    0.134286  -0.000109
    17  H    0.178749   0.001470
    18  H    0.162229   0.002271
    19  C   -0.163499  -0.003672
    20  C   -0.100289   0.000532
    21  C   -0.221671   0.076506
    22  C   -0.136289  -0.006299
    23  C   -0.184456   0.002234
    24  H    0.173402  -0.001996
    25  H    0.137522   0.000186
    26  H    0.156080   0.001781
    27  C   -0.191633   0.000284
    28  H    0.147861   0.000117
    29  H    0.138161  -0.000063
 Sum of Mulliken charges =   1.00000   2.00000
 Mulliken charges and spin densities with hydrogens summed into heavy atoms:
               1          2
     1  C    0.007442   0.302696
     2  C   -0.071912   0.511566
     3  C    0.019690   0.311535
     4  C    0.189957   0.030310
     7  C    0.185561   0.031471
    14  C    0.010777   0.592027
    15  Cu   0.428032   0.147156
    19  C    0.015251  -0.002203
    20  C    0.055791   0.002313
    21  C   -0.048269   0.074510
    22  C    0.025940  -0.004028
    23  C    0.097691   0.002242
    27  C    0.084050   0.000407
 APT charges:
               1
     1  C   -0.862138
     2  C   -0.633434
     3  C   -0.976813
     4  C   -0.704935
     5  H    0.105039
     6  H    0.925823
     7  C   -0.694585
     8  H    0.036752
     9  H    0.881646
    10  H    0.851436
    11  H    0.914660
    12  H    0.593898
    13  H    0.523960
    14  C   -0.567887
    15  Cu   0.380401
    16  H    0.595125
    17  H    0.412016
    18  H    0.137358
    19  C   -0.382363
    20  C   -0.802707
    21  C   -0.661176
    22  C    0.023123
    23  C   -1.172461
    24  H    0.521878
    25  H    0.165566
    26  H    0.629786
    27  C   -0.793545
    28  H    0.728359
    29  H    0.825217
 Sum of APT charges =   1.00000
 APT charges with hydrogens summed into heavy atoms:
               1
     1  C   -0.010703
     2  C   -0.039536
     3  C   -0.062153
     4  C    0.325927
     7  C    0.223814
    14  C   -0.043926
    15  Cu   0.380401
    19  C    0.029653
    20  C   -0.172921
    21  C   -0.139299
    22  C    0.160482
    23  C    0.151022
    27  C    0.197239
 Electronic spatial extent (au):  <R**2>=           3250.8599
 Charge=              1.0000 electrons
 Dipole moment (field-independent basis, Debye):
    X=              4.2628    Y=              0.0675    Z=              0.0341  Tot=              4.2634
 Quadrupole moment (field-independent basis, Debye-Ang):
   XX=            -47.9297   YY=            -74.9451   ZZ=            -79.2610
   XY=              1.7396   XZ=             -0.8881   YZ=              0.6030
 Traceless Quadrupole moment (field-independent basis, Debye-Ang):
   XX=             19.4489   YY=             -7.5665   ZZ=            -11.8824
   XY=              1.7396   XZ=             -0.8881   YZ=              0.6030
 Octapole moment (field-independent basis, Debye-Ang**2):
  XXX=             54.9046  YYY=              5.2664  ZZZ=              9.9327  XYY=              9.2570
  XXY=              3.3203  XXZ=             -5.1344  XZZ=             15.4815  YZZ=              0.6770
  YYZ=              5.4842  XYZ=             -1.0488
 Hexadecapole moment (field-independent basis, Debye-Ang**3):
 XXXX=          -2981.1068 YYYY=           -472.6055 ZZZZ=           -425.1317 XXXY=             -3.0375
 XXXZ=             18.9953 YYYX=              5.5752 YYYZ=             -1.7741 ZZZX=             -9.6268
 ZZZY=              0.8850 XXYY=           -627.3387 XXZZ=           -603.2061 YYZZ=           -133.4608
 XXYZ=             12.5729 YYXZ=             -2.0465 ZZXY=              8.7491
 N-N= 1.099874033990D+03 E-N=-7.179371605358D+03  KE= 2.097526448493D+03
  Exact polarizability:       0.000       0.000       0.000       0.000       0.000       0.000
 Approx polarizability:     170.283      -2.327     136.137      -1.462      -0.011     151.760
                          Isotropic Fermi Contact Couplings
        Atom                 a.u.       MegaHertz       Gauss      10(-4) cm-1
     1  C(13)              0.09987      56.13548      20.03054      18.72478
     2  C(13)              0.12648      71.09498      25.36846      23.71473
     3  C(13)              0.10389      58.39726      20.83759      19.47923
     4  C(13)              0.08068      45.34779      16.18122      15.12640
     5  H(1)               0.00572      12.77512       4.55848       4.26132
     6  H(1)               0.00102       2.27876       0.81312       0.76011
     7  C(13)              0.07888      44.33664      15.82042      14.78911
[...]
 339,-0.04762800,-0.00585988,-0.02966496,0.00245580,-0.00310332,-0.0041
 5011,-0.14402326,-0.00854103,0.00569372,0.53607996,-0.00001968,-0.0000
 1190,0.00005207,-0.00002466,0.00008784,-0.00006760,-0.00002937,-0.0000
 1033,-0.00002451,0.00000460,-0.00000843,-0.00000132,0.00000879,-0.0000
 0006,-0.00000512,0.00000383,0.00000376,0.00000102,-0.00000185,-0.00001
 504,-0.00000860,0.00001287,-0.00000984,0.00000041,0.00000173,0.0000032
 4,0.00000046,-0.00000003,0.00000263,0.00000234,0.00000904,0.00000393,-
 0.00000084,0.00000042,0.00000045,0.00001459,-0.00001621,0.00002169,-0.
 00000422,-0.00010521,0.00012957,0.00000550,-0.00124893,-0.00079252,-0.
 00007816,-0.04327049,-0.11377270,-0.10625717,-0.00143119,0.00082429,0.
 00012707,0.01905714,0.00009463,0.00352326,-0.00266722,-0.00282928,-0.0
 0104120,-0.01511823,0.00200055,-0.00985943,-0.00399121,0.00384254,-0.0
 0356974,-0.03337140,-0.06667398,-0.01166124,-0.07787463,0.43863336,-0.
 00004765,-0.00003163,-0.00002591,-0.00007126,0.00013875,-0.00008482,-0
 .00001768,-0.00006455,-0.00005738,-0.00000182,-0.00000880,0.00002524,-
 0.00001101,0.00000166,0.00001071,0.00001221,0.00000111,0.00000281,0.00
 002182,-0.00000609,-0.00000035,0.00000130,0.00000216,-0.00001474,0.000
 00603,0.00000402,0.00000567,-0.00000543,0.00000348,0.00002616,0.000000
 25,0.00003568,-0.00003407,0.00005343,-0.00002765,0.00001009,0.00001884
 ,-0.00000640,-0.00000864,-0.00004254,-0.00007560,0.00011703,0.00037349
 ,-0.00007588,0.00005984,-0.07506589,-0.10588174,-0.23411894,-0.0020264
 6,-0.00226228,-0.00056458,0.01745499,-0.00054806,0.00535276,-0.0057958
 0,-0.00046953,-0.01065779,-0.05231843,-0.00089911,-0.02882211,0.009216
 25,0.00736713,-0.00644655,0.00544802,-0.01801293,-0.03573766,0.0565555
 3,0.16368150,0.50817382,0.00075338,0.00072968,-0.00076356,0.00008901,-
 0.00122650,0.00084612,0.00041027,-0.00001219,0.00121820,-0.00003413,0.
 00029021,0.00000566,-0.00008458,-0.00006059,0.00003181,0.00000610,-0.0
 0008187,0.00000452,-0.00007357,0.00018608,0.00009858,-0.00001133,0.000
 01181,-0.00003129,-0.00001238,-0.00005283,-0.00002629,0.00001310,-0.00
 003416,-0.00022584,-0.00001827,-0.00016433,0.00013406,-0.00025673,0.00
 017395,-0.00009076,-0.00024650,0.00009546,0.00011928,-0.00024777,-0.00
 010563,-0.00156860,-0.00335437,0.00431054,0.00065560,-0.00023324,-0.00
 012983,-0.00001879,-0.00100451,0.00082522,0.00040389,0.00014268,-0.001
 68330,0.00105689,0.00821930,0.00315639,-0.00067508,0.00060291,-0.00707
 145,-0.00282102,-0.06530716,-0.07380806,0.02456433,0.00456576,-0.00334
 473,0.00587276,0.00145751,-0.00021965,0.00063826,0.05518791,-0.0003715
 2,-0.00023537,0.00037456,-0.00017592,0.00069753,-0.00026208,-0.0001252
 8,0.00006885,-0.00062356,0.00003032,-0.00015393,0.00000037,0.00007964,
 0.00002240,-0.00001019,-0.00000989,0.00003322,0.00000131,0.00003201,-0
 .00011467,-0.00000842,0.00001380,-0.00000831,0.00003035,-0.00000427,0.
 00002489,0.00000709,0.00001921,0.00000465,0.00004659,0.00001058,0.0000
 5764,-0.00004260,0.00010405,-0.00007975,0.00004387,0.00006087,-0.00001
 790,-0.00004617,0.00025243,-0.00004119,0.00068968,0.00186877,-0.004457
 24,0.00060832,-0.00011781,-0.00003901,-0.00002740,0.00097753,-0.000907
 76,0.00000693,0.00000345,-0.00078913,0.00001660,-0.00501394,0.00442066
 ,-0.00442477,-0.00386706,-0.00158210,0.00029218,-0.07514909,-0.2586889
 3,0.12497365,0.00377568,0.00065955,0.00638640,0.00036692,0.00007565,0.
 00043133,0.07844792,0.26188000,-0.00048629,-0.00036888,0.00053779,-0.0
 0003097,0.00073064,-0.00049682,-0.00021300,0.00008779,-0.00080737,0.00
 004188,-0.00015313,-0.00004682,0.00001526,0.00001367,0.00004009,0.0000
 0874,0.00002624,0.00000431,0.00004509,-0.00012417,-0.00001712,0.000005
 19,0.00001410,-0.00001472,0.00001148,0.00002299,0.00000738,-0.00000002
 ,0.00000342,0.00010931,0.00001289,0.00008344,-0.00007972,0.00015176,-0
 .00011765,0.00006089,0.00012735,-0.00004379,-0.00006904,0.00026292,-0.
 00007660,0.00087397,0.00167437,-0.00181341,0.00012722,-0.00001943,-0.0
 0005146,0.00000921,0.00095817,-0.00138597,-0.00014308,0.00028038,-0.00
 096931,-0.00056048,0.00678645,0.01675927,-0.00032830,-0.00123143,0.005
 00590,0.00087866,0.02182686,0.11637167,-0.10971124,0.00106861,-0.00255
 355,0.00462456,0.00056103,-0.00008140,0.00060770,-0.03163601,-0.130264
 21,0.10431369,-0.00006342,-0.00003174,0.00003170,-0.00002973,0.0000959
 4,-0.00002289,-0.00001787,0.00000936,-0.00008662,0.00000357,-0.0000168
 9,-0.00000403,0.00000691,-0.00000030,0.00000337,0.00000216,0.00000207,
 0.00000084,0.00000249,-0.00000294,0.00000554,0.00000287,-0.00000639,-0
 .00000225,0.00000119,0.00000362,0.00000220,0.00000543,0.00000060,0.000
 00837,0.00000142,0.00000922,-0.00000809,0.00000556,-0.00000910,0.00000
 842,-0.00004216,0.00002574,0.00000561,0.00014824,-0.00002181,0.0001083
 5,-0.00000457,0.00001068,0.00005853,0.00050263,-0.00078213,0.00032991,
 -0.00004970,-0.00001058,0.00001629,0.00030528,-0.00051422,0.00033931,0
 .00031025,0.00051263,-0.00060625,0.01186811,-0.01830240,-0.00705807,-0
 .00065709,0.00032431,0.00007912,-0.00038423,-0.00091448,-0.00097543,-0
 .00740782,0.01209995,0.00539523,0.00010480,-0.00001125,-0.00013776,0.0
 9855924,0.00000144,0.00001708,-0.00004525,0.00000925,0.00002248,0.0000
 2773,0.00002010,-0.00001120,0.00001768,-0.00000403,-0.00000296,0.00000
 505,0.00001402,0.00000637,-0.00000465,-0.00000150,0.00000274,0.0000006
 1,-0.00000186,0.00000739,0.00000531,0.00000810,-0.00000330,0.00000892,
 -0.00000362,0.00000473,0.00000291,0.00000270,0.00000036,-0.00000710,-0
 .00000066,0.00000067,0.00000235,-0.00003298,0.00001004,0.00000588,-0.0
 0007030,0.00004466,0.00000768,0.00011837,-0.00005113,-0.00000212,-0.00
 018685,-0.00022853,0.00010563,-0.00016244,0.00088199,-0.00011497,-0.00
 010083,-0.00015270,0.00006739,-0.00084422,-0.00011363,0.00098759,-0.00
 012814,0.00028654,-0.00004792,0.01004459,-0.01225686,-0.00612950,-0.00
 130909,0.00062056,0.00013467,0.00096509,0.00016156,-0.00100549,0.00404
 432,-0.00854668,-0.00554130,0.00004387,0.00004174,0.00007312,-0.102430
 83,0.25156554,0.00001171,0.00005067,-0.00004784,-0.00004257,-0.0000146
 9,0.00004317,0.00003614,-0.00000397,0.00002532,-0.00000588,-0.00000335
 ,0.00000974,0.00000577,0.00000241,-0.00000120,-0.00000112,-0.00000155,
 -0.00000041,-0.00000236,0.00000900,0.00001289,0.00000151,-0.00000458,0
 .00000441,-0.00000219,-0.00000017,0.00000012,0.00000134,-0.00000380,-0
 .00001737,-0.00000293,-0.00000148,0.00000301,0.00000268,-0.00000251,-0
 .00000310,-0.00004846,0.00002280,0.00002613,0.00005233,-0.00005474,-0.
 00007083,-0.00003037,-0.00004041,0.00022492,-0.00006362,-0.00111590,0.
 00134186,-0.00004649,-0.00005934,-0.00000704,0.00026960,0.00105490,-0.
 00042937,0.00139736,0.00024585,-0.00017769,0.00268731,-0.00673898,-0.0
 0500778,-0.00009612,-0.00032556,0.00049061,-0.00200044,0.00170200,-0.0
 0037552,-0.00854050,0.02030273,0.00797828,-0.00007712,-0.00005972,-0.0
 0003201,-0.04787881,0.08804577,0.08814222,0.00014498,0.00030494,-0.000
 10586,-0.00020504,-0.00020478,0.00046117,0.00021052,0.00014572,0.00018
 595,-0.00000135,0.00000172,-0.00000122,0.00004883,0.00000432,-0.000015
 04,-0.00002410,-0.00001469,-0.00000095,-0.00007225,0.00001328,0.000060
 02,0.00004617,-0.00000538,0.00004477,-0.00003434,-0.00000448,-0.000011
 78,0.00003377,-0.00001674,-0.00013617,-0.00000714,-0.00006152,0.000063
 08,-0.00009620,0.00007302,-0.00002960,-0.00010586,0.00005714,0.0000538
 0,0.00008568,-0.00021485,-0.00059472,-0.00107009,-0.00107270,0.0011945
 5,0.00036635,-0.00047418,0.00001855,0.00048389,-0.00011612,-0.00056332
 ,-0.00050619,-0.00090066,-0.00156340,-0.02715279,0.00873260,0.01616307
 ,-0.12975724,0.11244978,0.07247404,-0.00473067,0.00009425,-0.00010993,
 0.00288276,-0.00420763,-0.00322039,-0.00032006,-0.00300962,-0.00308134
 ,0.00107123,-0.00029698,-0.00041415,-0.00093680,-0.00196947,-0.0017248
 5,0.15563194,-0.00005304,0.00005915,0.00002831,-0.00018549,0.00007631,
 0.00011995,0.00005749,0.00010404,-0.00008031,-0.00000107,-0.00002797,-
 0.00000389,0.00002752,0.00000218,-0.00000139,-0.00000854,-0.00000204,0
 .00000040,-0.00001198,-0.00000690,0.00004058,0.00000510,-0.00001118,0.
 00000654,-0.00000611,0.00000184,-0.00000500,0.00002485,-0.00000623,-0.
 00004457,-0.00000343,-0.00001324,0.00001295,-0.00001311,0.00000332,0.0
 0000767,-0.00006148,0.00003628,0.00001582,0.00023857,-0.00018602,-0.00
 001295,-0.00033540,-0.00042175,0.00088602,-0.00022997,0.00040130,0.000
 33861,0.00044593,0.00057992,-0.00040142,-0.00079395,0.00008839,0.00052
 835,-0.00434045,0.00164301,0.00308895,0.10682078,-0.16619892,-0.084809
 10,-0.00752297,0.00364359,0.00582626,-0.00479886,0.00356411,0.00447261
 ,0.00081068,-0.00034117,0.00175866,0.00148149,-0.00048566,-0.00084899,
 -0.00448797,-0.00336132,-0.00173553,-0.09733249,0.18739342,0.00002305,
 0.00006650,-0.00001408,0.00007259,-0.00006145,0.00006435,0.00004291,-0
 .00000268,0.00003511,-0.00000424,0.00001039,0.00000489,0.00003072,0.00
 000371,-0.00000626,-0.00000710,0.00000170,-0.00000168,-0.00004163,0.00
 001157,0.00001743,0.00001337,-0.00001152,0.00001651,-0.00001132,0.0000
 0037,-0.00000251,0.00000447,-0.00000252,-0.00003003,0.00000361,-0.0000
 0953,0.00001418,-0.00003767,0.00002523,-0.00000393,-0.00002272,0.00001
 912,0.00000812,-0.00003072,-0.00001581,-0.00015771,-0.00078673,-0.0002
 3372,0.00047378,0.00009519,0.00042588,0.00037163,0.00056248,-0.0001731
 4,-0.00047085,0.00070662,0.00130490,-0.00476057,-0.00399532,0.00193509
 ,0.00362642,0.06087830,-0.07175820,-0.08599989,-0.00185716,-0.00261578
 ,-0.00120736,0.01783229,-0.02007301,-0.01792026,0.00166042,-0.00174943
 ,-0.00317285,-0.00047724,0.00046055,0.00030417,0.00087815,0.00130236,0
 .00046213,-0.07216814,0.08567205,0.10478659,0.00009742,0.00003459,-0.0
 0012067,0.00014577,-0.00011079,-0.00000713,0.00001157,-0.00006424,0.00
 016708,0.00000006,0.00001915,0.00000979,-0.00000850,0.00000659,-0.0000
 1411,0.00000072,0.00000281,-0.00000028,-0.00000129,0.00002507,-0.00001
 939,0.00000339,-0.00000294,0.00001552,-0.00000069,0.00000261,0.0000035
 0,-0.00001265,0.00000200,0.00000842,-0.00000058,-0.00000634,0.00000594
 ,-0.00004459,0.00001198,0.00000428,-0.00005794,0.00004064,0.00000639,0
 .00001647,0.00005650,-0.00008308,-0.00017504,0.00004881,-0.00042371,-0
 .00176467,0.00457590,-0.00090894,0.00027349,0.00037107,0.00000556,-0.0
 0045853,-0.00256261,-0.00030312,0.00051703,-0.00176443,0.00618983,-0.0
 9431322,-0.05607137,0.00655195,-0.00411311,-0.00766539,0.00095664,-0.0
 1209483,-0.03152203,0.01849638,-0.06695439,0.02909751,-0.01024741,-0.0
 0107133,-0.00070631,0.00008678,-0.09665404,0.09548925,0.04880027,0.003
 93653,0.00987762,-0.00154122,0.42926489,-0.00016762,-0.00012875,0.0002
 4250,-0.00004949,0.00022257,-0.00009394,-0.00010010,0.00005754,-0.0002
 5476,0.00002344,-0.00002993,-0.00003670,-0.00000427,-0.00001300,0.0000
 1102,0.00000578,0.00000303,-0.00000281,-0.00001023,-0.00002931,0.00001
 061,-0.00000127,-0.00001737,-0.00002314,0.00000987,-0.00000504,-0.0000
 0435,0.00000150,0.00000230,0.00003340,0.00001071,0.00000899,-0.0000154
 7,0.00005004,-0.00001980,0.00000761,0.00008692,-0.00004431,-0.00000549
 ,-0.00003237,0.00009120,0.00022324,-0.00012271,0.00004596,-0.00035225,
 -0.00254475,0.01012638,-0.00986173,0.00166837,0.00137324,-0.00081975,0
 .00116460,0.00021332,-0.00197810,-0.00276133,0.00522660,0.00409824,-0.
 03024273,-0.12626438,-0.01376878,-0.00676687,-0.00318272,0.00300571,-0
 .02116848,-0.03983041,0.02337365,0.02685429,-0.08672703,0.02188105,-0.
 00120402,0.00012213,-0.00030960,0.09739985,-0.23635669,-0.08517557,-0.
 01132210,-0.02794347,0.00599882,-0.01866129,0.57667512,-0.00000584,0.0
 0002043,0.00002779,-0.00008600,-0.00006515,0.00003924,0.00001923,0.000
 05800,-0.00003239,0.00000066,-0.00000534,-0.00000639,-0.00000828,-0.00
 000299,0.00000189,-0.00000366,-0.00000627,-0.00000006,-0.00000268,-0.0
 0000097,0.00000745,0.00000276,-0.00000885,0.00000304,-0.00000544,-0.00
 000446,-0.00000183,0.00000861,-0.00000143,-0.00001804,-0.00000433,-0.0
 0000572,0.00000447,0.00003393,-0.00000776,-0.00001129,0.00003206,-0.00
 001664,0.00001330,0.00000945,-0.00003601,-0.00005650,0.00040130,0.0002
 1699,0.00012595,-0.00330257,0.01324140,-0.00916731,-0.00090964,-0.0010
 6484,0.00064413,-0.00081669,0.00308867,-0.00076744,-0.00524033,-0.0061
 5745,-0.00892476,0.00781059,-0.02115157,-0.03938875,0.00067733,0.00770
 268,-0.00747026,0.02002606,0.04862086,-0.02448677,-0.01350678,0.019519
 15,-0.10983572,0.00242847,0.00145949,-0.00045782,0.04727557,-0.0822902
 3,-0.08432724,-0.00594365,-0.01556136,0.00415370,-0.18018385,-0.002920
 23,0.48668362,0.00003938,0.00004943,-0.00000463,0.00000831,-0.00011857
 ,0.00006241,0.00002738,0.00004358,0.00004192,-0.00000363,0.00000244,-0
 .00000669,0.00000942,0.00000195,-0.00000506,-0.00000910,-0.00000361,0.
 00000040,-0.00001240,0.00000035,0.00000268,0.00000903,0.00000313,0.000
 00963,-0.00000919,-0.00000150,-0.00000269,0.00000447,-0.00000365,-0.00
 002530,-0.00000278,-0.00002100,0.00001984,-0.00001241,0.00000808,-0.00
 000935,-0.00001403,-0.00000057,0.00001096,0.00001546,-0.00001315,-0.00
 010508,0.00040150,0.00018344,0.00000302,0.00995505,-0.00778963,-0.0039
 9801,0.00017319,-0.00021667,-0.00009178,-0.00502004,-0.00025165,-0.001
 66167,-0.00050416,-0.00080726,-0.00006867,0.00002353,0.00059625,0.0015
 1009,0.00073301,-0.00064852,0.00017560,-0.01352418,0.01720427,0.007651
 74,-0.17170381,0.12088658,0.06395605,-0.00024194,-0.00012929,-0.000090
 86,-0.00019553,-0.00024312,-0.00029941,-0.00056167,-0.00041852,-0.0010
 5958,-0.00266844,0.00171169,0.00276489,0.18254532,-0.00000015,0.000000
 22,-0.00002041,0.00002305,0.00000361,0.00000824,0.00000612,-0.00000922
 ,0.00000527,-0.00000294,-0.00000104,0.00000134,0.00000301,0.00000399,-
 0.00000183,-0.00000163,0.00000173,0.00000003,-0.00000427,0.00000401,-0
 .00000161,0.00000255,0.00000238,0.00000589,-0.00000270,0.00000241,0.00
 000187,-0.00000196,-0.00000037,0.00000151,-0.00000173,0.00000147,-0.00
 000084,-0.00000881,0.00000071,0.00000006,-0.00001557,0.00000737,0.0000
 0267,0.00005615,-0.00004542,0.00000372,0.00019072,0.00004144,-0.000001
 88,0.00900019,-0.00667285,-0.00308470,0.00008889,-0.00003587,-0.000008
 72,-0.00327631,0.00090167,-0.00047706,-0.00046525,0.00008427,0.0002531
 8,-0.00142396,-0.00067456,0.00071425,0.00037126,-0.00014567,0.00031437
 ,-0.01062048,0.01168560,0.00446452,0.12304516,-0.16456080,-0.06858696,
 0.00006930,-0.00005999,-0.00000707,0.00186563,-0.00096370,0.00303331,-
 0.00010029,0.00054442,-0.00011932,0.01190732,-0.01262746,-0.00681299,-
 0.12990044,0.17166653,-0.00002506,-0.00003197,0.00002240,0.00001834,0.
 00006047,-0.00004358,-0.00001994,-0.00001843,-0.00002968,0.00000508,-0
 .00000302,0.00000115,-0.00000435,-0.00000060,0.00000217,0.00000362,0.0
 0000285,-0.00000025,0.00000763,-0.00000390,-0.00000398,-0.00000407,-0.
 00000107,-0.00000464,0.00000402,0.00000059,0.00000059,-0.00000366,0.00
 000204,0.00001434,0.00000196,0.00000947,-0.00000952,0.00000249,-0.0000
 0149,0.00000314,0.00002392,-0.00000946,-0.00001096,-0.00001994,0.00000
 660,0.00005401,-0.00016928,-0.00008745,-0.00004736,0.01687111,-0.01400
 181,-0.00594244,-0.00000493,0.00004506,0.00002974,0.00189426,0.0008155
 1,0.00040870,0.00050091,-0.00032438,0.00036956,-0.00122176,0.00250164,
 -0.00042179,-0.00086252,-0.00070994,0.00010118,0.00485442,-0.00261144,
 -0.00391123,0.06611369,-0.07099305,-0.08366577,0.00009191,-0.00006967,
 -0.00008699,-0.00261540,0.00133554,-0.00240710,-0.00099165,-0.00021225
 ,-0.00064333,-0.01667857,0.01380562,0.00732067,-0.06875161,0.07078211,
 0.08750626,0.00000975,0.00004067,0.00002524,-0.00001804,-0.00004069,0.
 00003718,0.00001757,0.00003450,0.00000974,0.00000170,-0.00000395,-0.00
 000531,0.00001044,0.00000101,-0.00000427,-0.00000513,-0.00000206,0.000
 00006,-0.00000908,-0.00000442,0.00000177,0.00000924,-0.00000312,0.0000
 0910,-0.00000792,-0.00000190,-0.00000193,0.00000218,-0.00000282,-0.000
 02310,0.00000066,-0.00001518,0.00001556,-0.00000468,0.00000519,-0.0000
 0422,-0.00000207,-0.00000162,0.00001376,-0.00002142,-0.00000501,-0.000
 08965,0.00010497,0.00000716,0.00003259,-0.00019187,0.00038787,-0.00081
 161,-0.00019109,-0.00008960,0.00004855,0.00015663,-0.00027777,-0.00053
 004,0.00171681,-0.00004415,0.00156293,-0.00900985,0.00273955,0.0121224
 0,0.00050532,-0.00181758,0.00126565,-0.00056809,-0.00332957,-0.0000417
 6,0.00942787,0.00121712,-0.01041899,-0.00042615,-0.00006457,0.00033471
 ,-0.00538721,-0.00327113,0.00759722,0.00063915,0.00081480,-0.00076339,
 -0.15387349,-0.03382743,0.12852883,0.00053825,-0.00080287,0.00097942,0
 .15657555,0.00003497,0.00005232,-0.00001431,0.00002124,-0.00007059,0.0
 0004982,0.00002267,0.00002270,0.00005906,-0.00000080,0.00000400,-0.000
 00481,0.00001269,0.00000273,-0.00000664,-0.00000613,-0.00000098,0.0000
 0067,-0.00000871,0.00000223,0.00000109,0.00001182,-0.00000024,0.000010
 23,-0.00000733,0.00000027,-0.00000188,0.00000338,-0.00000191,-0.000022
 67,0.00000140,-0.00001935,0.00001984,-0.00003345,0.00001319,0.00000144
 ,-0.00004218,0.00002359,0.00000443,0.00001472,0.00000391,-0.00009903,-
 0.00012610,-0.00004112,-0.00000220,0.00003870,-0.00038713,0.00063698,-
 0.00021279,-0.00005672,0.00002918,-0.00022860,0.00061670,-0.00002846,0
 .00158941,0.00043853,0.00099157,-0.00940288,-0.00336575,0.01372707,-0.
 00050461,-0.00178016,0.00239272,-0.00367875,-0.00552239,0.00023778,-0.
 00730908,-0.00142437,0.00719197,-0.00062279,-0.00044795,-0.00002307,0.
 01518343,0.00837427,-0.01912759,-0.00055208,0.00086460,-0.00041210,-0.
 03243168,-0.06094873,0.04219258,-0.00012406,0.00084511,-0.00028754,0.0
 3835758,0.06280323,-0.00002283,-0.00003759,-0.00000749,0.00000686,0.00
 005947,-0.00003526,-0.00001701,-0.00002754,-0.00002773,0.00000058,-0.0
 0000062,0.00000484,-0.00000560,-0.00000067,0.00000350,0.00000473,0.000
 00284,-0.00000012,0.00000646,0.00000023,-0.00000280,-0.00000492,0.0000
 0186,-0.00000515,0.00000448,0.00000236,0.00000307,-0.00000258,0.000002
 43,0.00001918,-0.00000031,0.00001504,-0.00001499,0.00000511,-0.0000028
 9,0.00000380,0.00000940,-0.00000176,-0.00000956,0.00001898,-0.00001155
 ,0.00008138,-0.00003642,-0.00007495,-0.00001699,-0.00030264,0.00102638
 ,-0.00109392,-0.00001144,0.00004416,0.00001007,-0.00029182,-0.00003920
 ,0.00031105,0.00034542,-0.00009255,0.00083458,-0.00675836,0.00007477,0
 .00777765,0.00009655,0.00011952,-0.00053015,0.00221817,0.00184626,0.00
 114962,0.01038579,-0.00182708,-0.00912222,0.00024129,0.00000954,0.0003
 5260,0.00484908,0.00305233,-0.00586033,-0.00004286,0.00091302,0.000052
 31,0.12922313,0.04293122,-0.21407269,-0.00002882,-0.00046893,0.0013946
 9,-0.13989044,-0.04751611,0.21880108\\0.00000343,0.00000791,-0.0000001
 5,-0.00000109,-0.00000088,0.00000371,0.00000471,-0.00000173,0.00001590
 ,-0.00000189,0.00000561,0.00000320,-0.00000071,0.00000254,0.00000160,-
 0.00000110,0.00000549,0.00000635,-0.00000301,0.00000997,0.00000784,-0.
 00000518,0.00000735,0.00000249,-0.00000505,0.00001045,0.00000730,0.000
 00106,0.00000915,0.00001130,0.00000565,0.00000161,0.00001112,0.0000093
 5,-0.00000321,0.00000809,0.00000465,0.00000251,0.00000827,-0.00000430,
 0.00000210,0.00001198,0.00000467,-0.00000521,0.00000618,0.00000426,-0.
 00001092,-0.00000869,-0.00000637,0.00000318,-0.00000363,0.00000339,-0.
 00000544,-0.00000087,-0.00000587,0.00000503,-0.00000744,-0.00000216,-0
 .00000184,-0.00000557,0.00000032,-0.00000345,-0.00001608,0.00000065,-0
 .00000635,-0.00000767,0.00000128,-0.00000787,-0.00000923,-0.00000241,-
 0.00000407,-0.00000899,0.00000280,-0.00000452,-0.00000250,-0.00000478,
 -0.00000164,-0.00000973,-0.00000020,-0.00000419,-0.00000537,-0.0000006
 4,-0.00000834,-0.00001287,-0.00000147,-0.00000321,-0.00000654\\\@
 The archive entry for this job was punched.


 A SOLDIER'S LIFE IS A LIFE OF HONOR, BUT A DOG WOULD NOT LEAD IT.
 -- PRINCE RUPERT, FOUNDER OF THE HUDSON'S BAY COMPANY
 Job cpu time:       0 days  1 hours 34 minutes 57.6 seconds.
 Elapsed time:       0 days  0 hours  4 minutes 20.8 seconds.
 File lengths (MBytes):  RWF=    457 Int=      0 D2E=      0 Chk=     15 Scr=      1
 Normal termination of Gaussian 16 at Thu Dec 18 18:01:52 2025.
