 Entering Gaussian System, Link 0=g16
 Input=to-10-TS-3rd_09R.gau
 Output=to-10-TS-3rd_09R.log
 Initial command:
 /apps/gaussian/g16c01/g16/l1.exe "/jobfs/164287226.gadi-pbs/Gau-1934491.inp" -scrdir="/jobfs/164287226.gadi-pbs/"
 Default is to use a total of  48 processors:
                               48 via shared-memory
                                1 via Linda
 Entering Link 1 = /apps/gaussian/g16c01/g16/l1.exe PID=   1934492.
  
 Copyright (c) 1988-2019, Gaussian, Inc.  All Rights Reserved.
  
 This is part of the Gaussian(R) 16 program.  It is based on
 the Gaussian(R) 09 system (copyright 2009, Gaussian, Inc.),
 the Gaussian(R) 03 system (copyright 2003, Gaussian, Inc.),
 the Gaussian(R) 98 system (copyright 1998, Gaussian, Inc.),
 the Gaussian(R) 94 system (copyright 1995, Gaussian, Inc.),
 the Gaussian 92(TM) system (copyright 1992, Gaussian, Inc.),
 the Gaussian 90(TM) system (copyright 1990, Gaussian, Inc.),
 the Gaussian 88(TM) system (copyright 1988, Gaussian, Inc.),
 the Gaussian 86(TM) system (copyright 1986, Carnegie Mellon
 University), and the Gaussian 82(TM) system (copyright 1983,
 Carnegie Mellon University). Gaussian is a federally registered
 trademark of Gaussian, Inc.
  
 This software contains proprietary and confidential information,
 including trade secrets, belonging to Gaussian, Inc.
  
 This software is provided under written license and may be
 used, copied, transmitted, or stored only in accord with that
 written license.
  
 The following legend is applicable only to US Government
 contracts under FAR:
  
                    RESTRICTED RIGHTS LEGEND
  
 Use, reproduction and disclosure by the US Government is
 subject to restrictions as set forth in subparagraphs (a)
 and (c) of the Commercial Computer Software - Restricted
 Rights clause in FAR 52.227-19.
  
 Gaussian, Inc.
 340 Quinnipiac St., Bldg. 40, Wallingford CT 06492
  
  
 ---------------------------------------------------------------
 Warning -- This program may not be used in any manner that
 competes with the business of Gaussian, Inc. or will provide
 assistance to any competitor of Gaussian, Inc.  The licensee
 of this program is prohibited from giving any competitor of
 Gaussian, Inc. access to this program.  By using this program,
 the user acknowledges that Gaussian, Inc. is engaged in the
 business of creating and licensing software in the field of
 computational chemistry and represents and warrants to the
 licensee that it is not a competitor of Gaussian, Inc. and that
 it will not use this program in any manner prohibited above.
 ---------------------------------------------------------------
  

 Cite this work as:
 Gaussian 16, Revision C.01,
 M. J. Frisch, G. W. Trucks, H. B. Schlegel, G. E. Scuseria, 
 M. A. Robb, J. R. Cheeseman, G. Scalmani, V. Barone, 
 G. A. Petersson, H. Nakatsuji, X. Li, M. Caricato, A. V. Marenich, 
 J. Bloino, B. G. Janesko, R. Gomperts, B. Mennucci, H. P. Hratchian, 
 J. V. Ortiz, A. F. Izmaylov, J. L. Sonnenberg, D. Williams-Young, 
 F. Ding, F. Lipparini, F. Egidi, J. Goings, B. Peng, A. Petrone, 
 T. Henderson, D. Ranasinghe, V. G. Zakrzewski, J. Gao, N. Rega, 
 G. Zheng, W. Liang, M. Hada, M. Ehara, K. Toyota, R. Fukuda, 
 J. Hasegawa, M. Ishida, T. Nakajima, Y. Honda, O. Kitao, H. Nakai, 
 T. Vreven, K. Throssell, J. A. Montgomery, Jr., J. E. Peralta, 
 F. Ogliaro, M. J. Bearpark, J. J. Heyd, E. N. Brothers, K. N. Kudin, 
 V. N. Staroverov, T. A. Keith, R. Kobayashi, J. Normand, 
 K. Raghavachari, A. P. Rendell, J. C. Burant, S. S. Iyengar, 
 J. Tomasi, M. Cossi, J. M. Millam, M. Klene, C. Adamo, R. Cammi, 
 J. W. Ochterski, R. L. Martin, K. Morokuma, O. Farkas, 
 J. B. Foresman, and D. J. Fox, Gaussian, Inc., Wallingford CT, 2019.
 
 ******************************************
 Gaussian 16:  ES64L-G16RevC.01  3-Jul-2019
                30-Mar-2026 
 ******************************************
 %chk=to-10-TS-3rd_09R.chk
 Default route: Maxdisk=0MB
 ----------------------------------------------------------------------
 # opt(maxcycles=300) freq scf(maxcycle=300,xqc) UWB97XD/DEF2SVPP scrf(
 smd,solvent=Benzene) Temperature=253.15
 ----------------------------------------------------------------------
 1/6=300,18=20,19=15,26=3,38=1,112=253150/1,3;
 2/9=110,12=2,17=6,18=5,40=1/2;
 3/5=43,7=202,11=2,25=1,30=1,70=32201,71=1,72=12,74=-58,116=2/1,2,3;
 4//1;
 5/5=2,7=300,8=3,13=1,38=5,53=12/2,8;
 6/7=2,8=2,9=2,10=2,28=1/1;
 7//1,2,3,16;
 1/6=300,18=20,19=15,26=3/3(2);
 2/9=110/2;
 99//99;
 2/9=110/2;
 3/5=43,7=202,11=2,25=1,30=1,70=32205,71=1,72=12,74=-58,116=2/1,2,3;
 4/5=5,16=3,69=1/1;
 5/5=2,7=300,8=3,13=1,38=5,53=12/2,8;
 7//1,2,3,16;
 1/6=300,18=20,19=15,26=3/3(-5);
 2/9=110/2;
 6/7=2,8=2,9=2,10=2,19=2,28=1/1;
 99/9=1/99;
 ---------------------------------------------------------
 Title: Geometrical optimization and frequency calculation
 ---------------------------------------------------------
 Symbolic Z-matrix:
 Charge =  1 Multiplicity = 1
 C                    -1.45885   0.75286  -1.01059 
 C                    -2.71     -1.18617  -0.11106 
 C                    -3.40698  -0.40912   0.73102 
 C                    -3.2847    1.09982   0.66997 
 H                    -3.54341   1.55902   1.63811 
 H                    -4.0335    1.47993  -0.08439 
 C                    -1.84982   1.50939   0.25953 
 H                    -1.12866   1.19285   1.13419 
 H                    -1.72401   2.63617   0.1155 
 H                    -0.9646    1.27538  -1.83754 
 H                    -4.12049  -0.85633   1.44179 
 H                    -2.83704  -2.27288  -0.11828 
 H                    -1.69184  -1.09164  -2.09334 
 C                    -1.86047  -0.5511   -1.14725 
 Cu                    0.05716  -0.64501  -0.23883 
 H                     1.19049   1.94564  -0.05982 
 H                     1.83398  -2.38768   0.13114 
 H                     3.23051   0.90398   1.90586 
 C                     2.03833  -1.33303   0.38758 
 C                     3.13049  -0.37109  -0.05193 
 C                     1.57653  -0.4886    1.36963 
 C                     2.60247   0.58833   1.06424 
 C                     2.24331   1.64218  -0.01696 
 H                     0.84702  -0.60679   2.18901 
 H                     2.01058   0.34524  -1.88422 
 H                     4.15823  -0.76966  -0.05492 
 C                     2.74811   0.68559  -1.13255 
 H                     2.85543   2.55743   0.07145 
 H                     3.62913   1.08025  -1.66845 
 

 GradGradGradGradGradGradGradGradGradGradGradGradGradGradGradGradGradGrad
 Berny optimization.
 Initialization pass.
                           ----------------------------
                           !    Initial Parameters    !
                           ! (Angstroms and Degrees)  !
 --------------------------                            --------------------------
 ! Name  Definition              Value          Derivative Info.                !
 --------------------------------------------------------------------------------
 ! R1    R(1,7)                  1.5292         estimate D2E/DX2                !
 ! R2    R(1,10)                 1.096          estimate D2E/DX2                !
 ! R3    R(1,14)                 1.3712         estimate D2E/DX2                !
 ! R4    R(1,15)                 2.2018         estimate D2E/DX2                !
 ! R5    R(2,3)                  1.3412         estimate D2E/DX2                !
 ! R6    R(2,12)                 1.0941         estimate D2E/DX2                !
 ! R7    R(2,14)                 1.4828         estimate D2E/DX2                !
 ! R8    R(3,4)                  1.5151         estimate D2E/DX2                !
 ! R9    R(3,11)                 1.1019         estimate D2E/DX2                !
 ! R10   R(4,5)                  1.1023         estimate D2E/DX2                !
 ! R11   R(4,6)                  1.1288         estimate D2E/DX2                !
 ! R12   R(4,7)                  1.5476         estimate D2E/DX2                !
 ! R13   R(7,8)                  1.177          estimate D2E/DX2                !
 ! R14   R(7,9)                  1.1429         estimate D2E/DX2                !
 ! R15   R(13,14)                1.1026         estimate D2E/DX2                !
 ! R16   R(14,15)                2.124          estimate D2E/DX2                !
 ! R17   R(15,19)                2.1888         estimate D2E/DX2                !
 ! R18   R(15,21)                2.2181         estimate D2E/DX2                !
 ! R19   R(16,23)                1.0965         estimate D2E/DX2                !
 ! R20   R(17,19)                1.1044         estimate D2E/DX2                !
 ! R21   R(18,22)                1.0965         estimate D2E/DX2                !
 ! R22   R(19,20)                1.5203         estimate D2E/DX2                !
 ! R23   R(19,21)                1.375          estimate D2E/DX2                !
 ! R24   R(20,22)                1.5637         estimate D2E/DX2                !
 ! R25   R(20,26)                1.1023         estimate D2E/DX2                !
 ! R26   R(20,27)                1.559          estimate D2E/DX2                !
 ! R27   R(21,22)                1.5184         estimate D2E/DX2                !
 ! R28   R(21,24)                1.1034         estimate D2E/DX2                !
 ! R29   R(22,23)                1.552          estimate D2E/DX2                !
 ! R30   R(23,27)                1.5538         estimate D2E/DX2                !
 ! R31   R(23,28)                1.1046         estimate D2E/DX2                !
 ! R32   R(25,27)                1.1067         estimate D2E/DX2                !
 ! R33   R(27,29)                1.1041         estimate D2E/DX2                !
 ! A1    A(7,1,10)             120.4072         estimate D2E/DX2                !
 ! A2    A(7,1,14)             118.5775         estimate D2E/DX2                !
 ! A3    A(7,1,15)             101.4784         estimate D2E/DX2                !
 ! A4    A(10,1,14)            120.681          estimate D2E/DX2                !
 ! A5    A(10,1,15)            104.872          estimate D2E/DX2                !
 ! A6    A(3,2,12)             121.282          estimate D2E/DX2                !
 ! A7    A(3,2,14)             119.2329         estimate D2E/DX2                !
 ! A8    A(12,2,14)            119.1634         estimate D2E/DX2                !
 ! A9    A(2,3,4)              120.6494         estimate D2E/DX2                !
 ! A10   A(2,3,11)             120.4214         estimate D2E/DX2                !
 ! A11   A(4,3,11)             118.8439         estimate D2E/DX2                !
 ! A12   A(3,4,5)              111.134          estimate D2E/DX2                !
 ! A13   A(3,4,6)              107.9838         estimate D2E/DX2                !
 ! A14   A(3,4,7)              110.4312         estimate D2E/DX2                !
 ! A15   A(5,4,6)              106.9161         estimate D2E/DX2                !
 ! A16   A(5,4,7)              109.894          estimate D2E/DX2                !
 ! A17   A(6,4,7)              110.4068         estimate D2E/DX2                !
 ! A18   A(1,7,4)              109.0504         estimate D2E/DX2                !
 ! A19   A(1,7,8)              109.1185         estimate D2E/DX2                !
 ! A20   A(1,7,9)              110.7894         estimate D2E/DX2                !
 ! A21   A(4,7,8)              107.4472         estimate D2E/DX2                !
 ! A22   A(4,7,9)              113.3534         estimate D2E/DX2                !
 ! A23   A(8,7,9)              106.9394         estimate D2E/DX2                !
 ! A24   A(1,14,2)             120.3605         estimate D2E/DX2                !
 ! A25   A(1,14,13)            120.4582         estimate D2E/DX2                !
 ! A26   A(2,14,13)            118.5075         estimate D2E/DX2                !
 ! A27   A(2,14,15)            101.5047         estimate D2E/DX2                !
 ! A28   A(13,14,15)           101.9602         estimate D2E/DX2                !
 ! A29   A(1,15,19)            157.3832         estimate D2E/DX2                !
 ! A30   A(1,15,21)            132.9244         estimate D2E/DX2                !
 ! A31   A(14,15,19)           162.459          estimate D2E/DX2                !
 ! A32   A(14,15,21)           157.7363         estimate D2E/DX2                !
 ! A33   A(15,19,17)            93.7981         estimate D2E/DX2                !
 ! A34   A(15,19,20)           111.6303         estimate D2E/DX2                !
 ! A35   A(17,19,20)           132.0669         estimate D2E/DX2                !
 ! A36   A(17,19,21)           133.6389         estimate D2E/DX2                !
 ! A37   A(20,19,21)            93.3919         estimate D2E/DX2                !
 ! A38   A(19,20,22)            86.519          estimate D2E/DX2                !
 ! A39   A(19,20,26)           116.2178         estimate D2E/DX2                !
 ! A40   A(19,20,27)           116.9389         estimate D2E/DX2                !
 ! A41   A(22,20,26)           122.5897         estimate D2E/DX2                !
 ! A42   A(22,20,27)            89.7752         estimate D2E/DX2                !
 ! A43   A(26,20,27)           118.1553         estimate D2E/DX2                !
 ! A44   A(15,21,22)           111.5299         estimate D2E/DX2                !
 ! A45   A(15,21,24)            94.4773         estimate D2E/DX2                !
 ! A46   A(19,21,22)            93.7266         estimate D2E/DX2                !
 ! A47   A(19,21,24)           133.3619         estimate D2E/DX2                !
 ! A48   A(22,21,24)           132.2237         estimate D2E/DX2                !
 ! A49   A(18,22,20)           122.0786         estimate D2E/DX2                !
 ! A50   A(18,22,21)           115.8985         estimate D2E/DX2                !
 ! A51   A(18,22,23)           118.1502         estimate D2E/DX2                !
 ! A52   A(20,22,21)            86.3625         estimate D2E/DX2                !
 ! A53   A(20,22,23)            89.8569         estimate D2E/DX2                !
 ! A54   A(21,22,23)           117.7335         estimate D2E/DX2                !
 ! A55   A(16,23,22)           115.9354         estimate D2E/DX2                !
 ! A56   A(16,23,27)           117.0157         estimate D2E/DX2                !
 ! A57   A(16,23,28)           107.8112         estimate D2E/DX2                !
 ! A58   A(22,23,27)            90.3985         estimate D2E/DX2                !
 ! A59   A(22,23,28)           112.2493         estimate D2E/DX2                !
 ! A60   A(27,23,28)           112.8003         estimate D2E/DX2                !
 ! A61   A(20,27,23)            89.96           estimate D2E/DX2                !
 ! A62   A(20,27,25)           115.2003         estimate D2E/DX2                !
 ! A63   A(20,27,29)           112.5184         estimate D2E/DX2                !
 ! A64   A(23,27,25)           117.4169         estimate D2E/DX2                !
 ! A65   A(23,27,29)           112.8079         estimate D2E/DX2                !
 ! A66   A(25,27,29)           108.1807         estimate D2E/DX2                !
 ! D1    D(10,1,7,4)           135.2741         estimate D2E/DX2                !
 ! D2    D(10,1,7,8)          -107.6342         estimate D2E/DX2                !
 ! D3    D(10,1,7,9)             9.8465         estimate D2E/DX2                !
 ! D4    D(14,1,7,4)           -38.1326         estimate D2E/DX2                !
 ! D5    D(14,1,7,8)            78.9592         estimate D2E/DX2                !
 ! D6    D(14,1,7,9)          -163.5602         estimate D2E/DX2                !
 ! D7    D(15,1,7,4)          -109.7121         estimate D2E/DX2                !
 ! D8    D(15,1,7,8)             7.3797         estimate D2E/DX2                !
 ! D9    D(15,1,7,9)           124.8603         estimate D2E/DX2                !
 ! D10   D(7,1,14,2)             2.8749         estimate D2E/DX2                !
 ! D11   D(7,1,14,13)          173.3284         estimate D2E/DX2                !
 ! D12   D(10,1,14,2)         -170.513          estimate D2E/DX2                !
 ! D13   D(10,1,14,13)          -0.0595         estimate D2E/DX2                !
 ! D14   D(7,1,15,19)          -84.7532         estimate D2E/DX2                !
 ! D15   D(7,1,15,21)          -33.6203         estimate D2E/DX2                !
 ! D16   D(10,1,15,19)          41.283          estimate D2E/DX2                !
 ! D17   D(10,1,15,21)          92.4159         estimate D2E/DX2                !
 ! D18   D(12,2,3,4)          -176.139          estimate D2E/DX2                !
 ! D19   D(12,2,3,11)            0.4646         estimate D2E/DX2                !
 ! D20   D(14,2,3,4)            -2.7065         estimate D2E/DX2                !
 ! D21   D(14,2,3,11)          173.897          estimate D2E/DX2                !
 ! D22   D(3,2,14,1)            19.8659         estimate D2E/DX2                !
 ! D23   D(3,2,14,13)         -150.7713         estimate D2E/DX2                !
 ! D24   D(3,2,14,15)           98.6676         estimate D2E/DX2                !
 ! D25   D(12,2,14,1)         -166.5611         estimate D2E/DX2                !
 ! D26   D(12,2,14,13)          22.8018         estimate D2E/DX2                !
 ! D27   D(12,2,14,15)         -87.7593         estimate D2E/DX2                !
 ! D28   D(2,3,4,5)           -155.6376         estimate D2E/DX2                !
 ! D29   D(2,3,4,6)             87.3969         estimate D2E/DX2                !
 ! D30   D(2,3,4,7)            -33.4085         estimate D2E/DX2                !
 ! D31   D(11,3,4,5)            27.706          estimate D2E/DX2                !
 ! D32   D(11,3,4,6)           -89.2594         estimate D2E/DX2                !
 ! D33   D(11,3,4,7)           149.9351         estimate D2E/DX2                !
 ! D34   D(3,4,7,1)             51.4053         estimate D2E/DX2                !
 ! D35   D(3,4,7,8)            -66.7418         estimate D2E/DX2                !
 ! D36   D(3,4,7,9)            175.33           estimate D2E/DX2                !
 ! D37   D(5,4,7,1)            174.3601         estimate D2E/DX2                !
 ! D38   D(5,4,7,8)             56.213          estimate D2E/DX2                !
 ! D39   D(5,4,7,9)            -61.7152         estimate D2E/DX2                !
 ! D40   D(6,4,7,1)            -67.9435         estimate D2E/DX2                !
 ! D41   D(6,4,7,8)            173.9094         estimate D2E/DX2                !
 ! D42   D(6,4,7,9)             55.9812         estimate D2E/DX2                !
 ! D43   D(2,14,15,19)          88.7944         estimate D2E/DX2                !
 ! D44   D(2,14,15,21)         -43.6418         estimate D2E/DX2                !
 ! D45   D(13,14,15,19)        -33.9561         estimate D2E/DX2                !
 ! D46   D(13,14,15,21)       -166.3923         estimate D2E/DX2                !
 ! D47   D(1,15,19,17)        -151.2203         estimate D2E/DX2                !
 ! D48   D(1,15,19,20)         -12.7456         estimate D2E/DX2                !
 ! D49   D(14,15,19,17)        -17.1884         estimate D2E/DX2                !
 ! D50   D(14,15,19,20)        121.2863         estimate D2E/DX2                !
 ! D51   D(1,15,21,22)         -63.3533         estimate D2E/DX2                !
 ! D52   D(1,15,21,24)          75.719          estimate D2E/DX2                !
 ! D53   D(14,15,21,22)       -115.7319         estimate D2E/DX2                !
 ! D54   D(14,15,21,24)         23.3404         estimate D2E/DX2                !
 ! D55   D(15,19,20,22)         72.9632         estimate D2E/DX2                !
 ! D56   D(15,19,20,26)       -162.1791         estimate D2E/DX2                !
 ! D57   D(15,19,20,27)        -15.0125         estimate D2E/DX2                !
 ! D58   D(17,19,20,22)       -170.0444         estimate D2E/DX2                !
 ! D59   D(17,19,20,26)        -45.1866         estimate D2E/DX2                !
 ! D60   D(17,19,20,27)        101.9799         estimate D2E/DX2                !
 ! D61   D(21,19,20,22)         -0.0678         estimate D2E/DX2                !
 ! D62   D(21,19,20,26)        124.7899         estimate D2E/DX2                !
 ! D63   D(21,19,20,27)        -88.0435         estimate D2E/DX2                !
 ! D64   D(17,19,21,22)        169.7852         estimate D2E/DX2                !
 ! D65   D(17,19,21,24)         -1.2609         estimate D2E/DX2                !
 ! D66   D(20,19,21,22)          0.0698         estimate D2E/DX2                !
 ! D67   D(20,19,21,24)       -170.9763         estimate D2E/DX2                !
 ! D68   D(19,20,22,18)        118.53           estimate D2E/DX2                !
 ! D69   D(19,20,22,21)          0.0614         estimate D2E/DX2                !
 ! D70   D(19,20,22,23)       -117.7434         estimate D2E/DX2                !
 ! D71   D(26,20,22,18)         -0.5759         estimate D2E/DX2                !
 ! D72   D(26,20,22,21)       -119.0445         estimate D2E/DX2                !
 ! D73   D(26,20,22,23)        123.1507         estimate D2E/DX2                !
 ! D74   D(27,20,22,18)       -124.4617         estimate D2E/DX2                !
 ! D75   D(27,20,22,21)        117.0697         estimate D2E/DX2                !
 ! D76   D(27,20,22,23)         -0.735          estimate D2E/DX2                !
 ! D77   D(19,20,27,23)         86.7142         estimate D2E/DX2                !
 ! D78   D(19,20,27,25)        -33.8543         estimate D2E/DX2                !
 ! D79   D(19,20,27,29)       -158.4923         estimate D2E/DX2                !
 ! D80   D(22,20,27,23)          0.7341         estimate D2E/DX2                !
 ! D81   D(22,20,27,25)       -119.8344         estimate D2E/DX2                !
 ! D82   D(22,20,27,29)        115.5276         estimate D2E/DX2                !
 ! D83   D(26,20,27,23)       -126.7695         estimate D2E/DX2                !
 ! D84   D(26,20,27,25)        112.662          estimate D2E/DX2                !
 ! D85   D(26,20,27,29)        -11.976          estimate D2E/DX2                !
 ! D86   D(15,21,22,18)        165.1601         estimate D2E/DX2                !
 ! D87   D(15,21,22,20)        -70.7358         estimate D2E/DX2                !
 ! D88   D(15,21,22,23)         17.1867         estimate D2E/DX2                !
 ! D89   D(19,21,22,18)       -124.172          estimate D2E/DX2                !
 ! D90   D(19,21,22,20)         -0.0679         estimate D2E/DX2                !
 ! D91   D(19,21,22,23)         87.8546         estimate D2E/DX2                !
 ! D92   D(24,21,22,18)         47.0385         estimate D2E/DX2                !
 ! D93   D(24,21,22,20)        171.1427         estimate D2E/DX2                !
 ! D94   D(24,21,22,23)       -100.9349         estimate D2E/DX2                !
 ! D95   D(18,22,23,16)       -111.7575         estimate D2E/DX2                !
 ! D96   D(18,22,23,27)        127.6786         estimate D2E/DX2                !
 ! D97   D(18,22,23,28)         12.7462         estimate D2E/DX2                !
 ! D98   D(20,22,23,16)        121.3013         estimate D2E/DX2                !
 ! D99   D(20,22,23,27)          0.7375         estimate D2E/DX2                !
 ! D100  D(20,22,23,28)       -114.195          estimate D2E/DX2                !
 ! D101  D(21,22,23,16)         35.4872         estimate D2E/DX2                !
 ! D102  D(21,22,23,27)        -85.0767         estimate D2E/DX2                !
 ! D103  D(21,22,23,28)        159.9909         estimate D2E/DX2                !
 ! D104  D(16,23,27,20)       -120.3754         estimate D2E/DX2                !
 ! D105  D(16,23,27,25)         -1.7359         estimate D2E/DX2                !
 ! D106  D(16,23,27,29)        125.0944         estimate D2E/DX2                !
 ! D107  D(22,23,27,20)         -0.7397         estimate D2E/DX2                !
 ! D108  D(22,23,27,25)        117.8999         estimate D2E/DX2                !
 ! D109  D(22,23,27,29)       -115.2699         estimate D2E/DX2                !
 ! D110  D(28,23,27,20)        113.6956         estimate D2E/DX2                !
 ! D111  D(28,23,27,25)       -127.6648         estimate D2E/DX2                !
 ! D112  D(28,23,27,29)         -0.8346         estimate D2E/DX2                !
 --------------------------------------------------------------------------------
 Trust Radius=3.00D-01 FncErr=1.00D-07 GrdErr=1.00D-06 EigMax=2.50D+02 EigMin=1.00D-04
 Number of steps in this run=    174 maximum allowed number of steps=    174.
 GradGradGradGradGradGradGradGradGradGradGradGradGradGradGradGradGradGrad

                          Input orientation:                          
 ---------------------------------------------------------------------
 Center     Atomic      Atomic             Coordinates (Angstroms)
 Number     Number       Type             X           Y           Z
 ---------------------------------------------------------------------
      1          6           0       -1.458846    0.752863   -1.010588
      2          6           0       -2.709998   -1.186166   -0.111064
      3          6           0       -3.406976   -0.409120    0.731021
      4          6           0       -3.284699    1.099821    0.669969
      5          1           0       -3.543408    1.559022    1.638108
      6          1           0       -4.033497    1.479926   -0.084389
      7          6           0       -1.849820    1.509394    0.259533
      8          1           0       -1.128658    1.192847    1.134190
      9          1           0       -1.724012    2.636170    0.115500
     10          1           0       -0.964604    1.275380   -1.837539
     11          1           0       -4.120492   -0.856326    1.441792
     12          1           0       -2.837042   -2.272878   -0.118275
     13          1           0       -1.691840   -1.091637   -2.093336
     14          6           0       -1.860471   -0.551100   -1.147245
     15         29           0        0.057157   -0.645010   -0.238825
     16          1           0        1.190494    1.945640   -0.059824
     17          1           0        1.833977   -2.387683    0.131142
     18          1           0        3.230506    0.903980    1.905861
     19          6           0        2.038330   -1.333034    0.387582
     20          6           0        3.130494   -0.371092   -0.051926
     21          6           0        1.576527   -0.488599    1.369627
     22          6           0        2.602471    0.588328    1.064236
     23          6           0        2.243315    1.642177   -0.016959
     24          1           0        0.847019   -0.606794    2.189013
     25          1           0        2.010579    0.345236   -1.884221
     26          1           0        4.158233   -0.769664   -0.054921
     27          6           0        2.748113    0.685594   -1.132545
     28          1           0        2.855431    2.557425    0.071445
     29          1           0        3.629125    1.080249   -1.668451
 ---------------------------------------------------------------------
                    Distance matrix (angstroms):
                    1          2          3          4          5
     1  C    0.000000
     2  C    2.476764   0.000000
     3  C    2.859828   1.341151   0.000000
     4  C    2.505672   2.483149   1.515118   0.000000
     5  H    3.465672   3.360094   2.171406   1.102311   0.000000
     6  H    2.831129   2.976644   2.150794   1.128820   1.792607
     7  C    1.529185   2.853645   2.515498   1.547606   2.184301
     8  H    2.214200   3.116247   2.814174   2.207412   2.493799
     9  H    2.210256   3.953954   3.533416   2.259103   2.605530
    10  H    1.095969   3.476539   3.924312   3.420710   4.337142
    11  H    3.960810   2.123594   1.101950   2.262912   2.491078
    12  H    3.442493   1.094137   2.125964   3.492395   4.274025
    13  H    2.151467   2.230467   3.374094   3.869825   4.937405
    14  C    1.371239   1.482793   2.437154   2.838350   3.878541
    15  Cu   2.201802   2.822467   3.605061   3.877930   4.620033
    16  H    3.057069   5.002467   5.225616   4.612522   5.044034
    17  H    4.691403   4.706380   5.634018   6.217223   6.838399
    18  H    5.524358   6.612585   6.867361   6.634281   6.810777
    19  C    4.305355   4.776697   5.533798   5.859451   6.409649
    20  C    4.821239   5.897388   6.584297   6.621134   7.150002
    21  C    4.052177   4.588392   5.024882   5.161794   5.520740
    22  C    4.563580   5.722979   6.100769   5.922486   6.248472
    23  C    3.934994   5.704708   6.057481   5.596870   6.019329
    24  H    4.171706   4.275324   4.501254   4.721348   4.926470
    25  H    3.600875   5.270021   6.062874   5.927331   6.687814
    26  H    5.897708   6.881077   7.614465   7.708286   8.222189
    27  C    4.209264   5.859854   6.523526   6.309949   6.929836
    28  H    4.800023   6.709827   6.960831   6.339088   6.663061
    29  H    5.140760   6.909889   7.581715   7.298599   7.912508
                    6          7          8          9         10
     6  H    0.000000
     7  C    2.210791   0.000000
     8  H    3.163137   1.176988   0.000000
     9  H    2.590478   1.142890   1.864231   0.000000
    10  H    3.540265   2.288248   2.977398   2.498562   0.000000
    11  H    2.791929   3.485731   3.639341   4.438434   5.025715
    12  H    3.939060   3.927204   4.061834   5.039071   4.364863
    13  H    4.016486   3.510885   3.994116   4.333190   2.489392
    14  C    3.158603   2.494950   2.963418   3.431011   2.148281
    15  Cu   4.612229   2.919996   2.582450   3.750234   2.699589
    16  H    5.244766   3.088010   2.714928   3.000319   2.872972
    17  H    7.030797   5.364145   4.754315   6.156186   5.012563
    18  H    7.553711   5.374629   4.436353   5.545550   5.634708
    19  C    6.708397   4.818039   4.119140   5.475749   4.557697
    20  C    7.399330   5.332613   4.689686   5.712958   4.761209
    21  C    6.120590   4.118754   3.193856   4.714931   4.455882
    22  C    6.793405   4.617229   3.780431   4.879776   4.649340
    23  C    6.279271   4.104611   3.591273   4.092096   3.706723
    24  H    5.774270   3.933711   2.873092   4.628874   4.799758
    25  H    6.407634   4.566577   4.436672   4.816060   3.117541
    26  H    8.495055   6.433482   5.763389   6.799232   5.796843
    27  C    6.907954   4.874168   4.519375   5.036096   3.824805
    28  H    6.974426   4.824224   4.343324   4.580332   4.458758
    29  H    7.834843   5.824099   5.523040   5.853157   4.600980
                   11         12         13         14         15
    11  H    0.000000
    12  H    2.467321   0.000000
    13  H    4.295445   2.570542   0.000000
    14  C    3.450213   2.230917   1.102590   0.000000
    15  Cu   4.507979   3.322781   2.587987   2.123992   0.000000
    16  H    6.189704   5.832697   4.654898   4.089570   2.833366
    17  H    6.286379   4.679082   4.365710   4.319289   2.516123
    18  H    7.573058   7.141757   6.648726   6.112018   4.131488
    19  C    6.266554   4.990837   4.486357   4.262366   2.188792
    20  C    7.419127   6.263599   5.285967   5.112911   3.091175
    21  C    5.709331   4.987694   4.799791   4.260458   2.218123
    22  C    6.886785   6.258844   5.588707   5.109481   3.114115
    23  C    6.990602   6.414667   5.222119   4.788431   3.171709
    24  H    5.029590   4.655289   5.001939   4.297001   2.553378
    25  H    7.077863   5.785544   3.976964   4.041235   2.739301
    26  H    8.413379   7.155246   6.203399   6.120926   4.107089
    27  C    7.495496   6.401192   4.877997   4.771653   3.132170
    28  H    7.886384   7.468070   6.219293   5.778223   4.264058
    29  H    8.572077   7.447001   5.762837   5.750532   4.216551
                   16         17         18         19         20
    16  H    0.000000
    17  H    4.385000   0.000000
    18  H    3.018381   3.991862   0.000000
    19  C    3.415948   1.104448   2.954773   0.000000
    20  C    3.021739   2.404394   2.338534   1.520303   0.000000
    21  C    2.849188   2.281808   2.227660   1.375044   2.109368
    22  C    2.258204   3.212147   1.096539   2.113705   1.563686
    23  C    1.096521   4.053303   2.284013   3.009577   2.200355
    24  H    3.419088   2.894907   2.836128   2.278552   3.208056
    25  H    2.561690   3.400253   4.020589   2.824615   2.263767
    26  H    4.022484   2.838093   2.739786   2.237674   1.102323
    27  C    2.272581   3.446387   3.084203   2.624774   1.559018
    28  H    1.778631   5.049854   2.497928   3.987890   2.943993
    29  H    3.046884   4.299726   3.600788   3.547088   2.228941
                   21         22         23         24         25
    21  C    0.000000
    22  C    1.518419   0.000000
    23  C    2.628200   1.551958   0.000000
    24  H    1.103424   2.403134   3.445842   0.000000
    25  H    3.386917   3.017089   2.285364   4.341828   0.000000
    26  H    2.962016   2.348840   3.079826   4.003237   3.033440
    27  C    3.002034   2.203751   1.553835   4.039452   1.106714
    28  H    3.549526   2.219677   1.104618   4.304660   3.071186
    29  H    3.988027   2.960335   2.227927   5.046410   1.790668
                   26         27         28         29
    26  H    0.000000
    27  C    2.295101   0.000000
    28  H    3.575302   2.228197   0.000000
    29  H    2.511098   1.104142   2.409956   0.000000
 Stoichiometry    C12H16Cu(1+)
 Framework group  C1[X(C12H16Cu)]
 Deg. of freedom    81
 Full point group                 C1      NOp   1
 Largest Abelian subgroup         C1      NOp   1
 Largest concise Abelian subgroup C1      NOp   1
                         Standard orientation:                         
 ---------------------------------------------------------------------
 Center     Atomic      Atomic             Coordinates (Angstroms)
 Number     Number       Type             X           Y           Z
 ---------------------------------------------------------------------
      1          6           0       -1.445672    0.717956   -1.053997
      2          6           0       -2.721530   -1.161698   -0.067365
      3          6           0       -3.414480   -0.337181    0.731807
      4          6           0       -3.276082    1.165617    0.597544
      5          1           0       -3.534750    1.674389    1.540588
      6          1           0       -4.017109    1.515896   -0.178612
      7          6           0       -1.834972    1.539854    0.175367
      8          1           0       -1.121509    1.259239    1.068411
      9          1           0       -1.696641    2.656860   -0.023027
     10          1           0       -0.941888    1.194185   -1.902852
     11          1           0       -4.136157   -0.741650    1.459736
     12          1           0       -2.859928   -2.246098   -0.022002
     13          1           0       -1.692636   -1.174965   -2.046301
     14          6           0       -1.860270   -0.586963   -1.128773
     15         29           0        0.051747   -0.655808   -0.206387
     16          1           0        1.211294    1.928771   -0.148384
     17          1           0        1.808337   -2.396322    0.258237
     18          1           0        3.230512    0.963987    1.877097
     19          6           0        2.022469   -1.332508    0.463793
     20          6           0        3.126825   -0.404515   -0.016363
     21          6           0        1.564693   -0.436225    1.400736
     22          6           0        2.603375    0.613866    1.048537
     23          6           0        2.260649    1.617018   -0.084952
     24          1           0        0.829938   -0.506604    2.220936
     25          1           0        2.023570    0.232474   -1.887650
     26          1           0        4.150329   -0.813250    0.005790
     27          6           0        2.760903    0.601737   -1.149543
     28          1           0        2.881886    2.529189   -0.038170
     29          1           0        3.648648    0.960586   -1.699329
 ---------------------------------------------------------------------
 Rotational constants (GHZ):           1.5199355           0.4422968           0.4134021
 Standard basis: def2SVPP (5D, 7F)
 There are   238 symmetry adapted cartesian basis functions of A   symmetry.
 There are   224 symmetry adapted basis functions of A   symmetry.
   224 basis functions,   435 primitive gaussians,   238 cartesian basis functions
    58 alpha electrons       58 beta electrons
       nuclear repulsion energy      1116.1848515938 Hartrees.
 NAtoms=   29 NActive=   29 NUniq=   29 SFac= 1.00D+00 NAtFMM=   60 NAOKFM=F Big=F
 Integral buffers will be    131072 words long.
 Raffenetti 2 integral format.
 Two-electron integral symmetry is turned on.
 Nuclear repulsion after empirical dispersion term =     1116.1619370944 Hartrees.
 ------------------------------------------------------------------------------
 Polarizable Continuum Model (PCM)
 =================================
 Model                : PCM.
 Atomic radii         : SMD-Coulomb.
 Polarization charges : Total charges.
 Charge compensation  : None.
 Solution method      : On-the-fly selection.
 Cavity type          : VdW (van der Waals Surface) (Alpha=1.000).
 Cavity algorithm     : GePol (No added spheres)
                        Default sphere list used, NSphG=   29.
                        Lebedev-Laikov grids with approx.  5.0 points / Ang**2.
                        Smoothing algorithm: York/Karplus (Gamma=1.0000).
                        Polarization charges: spherical gaussians, with
                                              point-specific exponents (IZeta= 3).
                        Self-potential: point-specific (ISelfS= 7).
                        Self-field    : sphere-specific E.n sum rule (ISelfD= 2).
 1st derivatives      : Analytical E(r).r(x)/FMM algorithm (CHGder, D1EAlg=3).
                        Cavity 1st derivative terms included.
 Solvent              : Benzene, Eps=   2.270600 Eps(inf)=   2.253301
 ------------------------------------------------------------------------------
 ------------------------------------------------------------------------------
 Atomic radii for non-electrostatic terms: SMD-CDS.
 ------------------------------------------------------------------------------
 Nuclear repulsion after PCM non-electrostatic terms =     1116.1510673423 Hartrees.
 One-electron integrals computed using PRISM.
   1 Symmetry operations used in ECPInt.
 ECPInt:  NShTT=    6555 NPrTT=   28210 LenC2=    6419 LenP2D=   20116.
 LDataN:  DoStor=T MaxTD1= 4 Len=   56
 NBasis=   224 RedAO= T EigKep=  2.78D-04  NBF=   224
 NBsUse=   224 1.00D-06 EigRej= -1.00D+00 NBFU=   224
 ExpMin= 3.30D-02 ExpMax= 7.64D+04 ExpMxC= 1.15D+04 IAcc=3 IRadAn=         5 AccDes= 0.00D+00
 Harris functional with IExCor= 4639 and IRadAn=       5 diagonalized for initial guess.
 HarFok:  IExCor= 4639 AccDes= 0.00D+00 IRadAn=         5 IDoV= 1 UseB2=F ITyADJ=14
 ICtDFT=  3500011 ScaDFX=  1.000000  1.000000  1.000000  1.000000
 FoFCou: FMM=F IPFlag=           0 FMFlag=      100000 FMFlg1=           0
         NFxFlg=           0 DoJE=T BraDBF=F KetDBF=T FulRan=T
         wScrn=  0.000000 ICntrl=       500 IOpCl=  0 I1Cent=   200000004 NGrid=           0
         NMat0=    1 NMatS0=      1 NMatT0=    0 NMatD0=    1 NMtDS0=    0 NMtDT0=    0
 Petite list used in FoFCou.
 Initial guess <Sx>= 0.0000 <Sy>= 0.0000 <Sz>= 0.0000 <S**2>=-0.0000 S=-0.0000
 Requested convergence on RMS density matrix=1.00D-08 within 128 cycles.
 Requested convergence on MAX density matrix=1.00D-06.
 Requested convergence on             energy=1.00D-06.
 No special actions if energy rises.
 Inv3:  Mode=1 IEnd=    13610700.
 Iteration    1 A*A^-1 deviation from unit magnitude is 4.88D-15 for   2114.
 Iteration    1 A*A^-1 deviation from orthogonality  is 1.43D-15 for   2127    656.
 Iteration    1 A^-1*A deviation from unit magnitude is 4.88D-15 for   2114.
 Iteration    1 A^-1*A deviation from orthogonality  is 1.42D-15 for   2100    695.
 EnCoef did   100 forward-backward iterations
 EnCoef did   100 forward-backward iterations
 Restarting incremental Fock formation.
 Error on total polarization charges =  0.04994
 SCF Done:  E(UwB97XD) =  -2106.49515692     A.U. after   21 cycles
            NFock= 21  Conv=0.75D-08     -V/T= 2.0043
 <Sx>= 0.0000 <Sy>= 0.0000 <Sz>= 0.0000 <S**2>=-0.0000 S=-0.0000
 <L.S>= 0.000000000000E+00
 SMD-CDS (non-electrostatic) energy       (kcal/mol) =      -6.82
 (included in total energy above)
 Annihilation of the first spin contaminant:
 S**2 before annihilation    -0.0000,   after     0.0000
 QCSCF skips out because SCF is already converged.

 **********************************************************************

            Population analysis using the SCF Density.

 **********************************************************************

 Orbital symmetries:
 Alpha Orbitals:
       Occupied  (A) (A) (A) (A) (A) (A) (A) (A) (A) (A) (A) (A)
                 (A) (A) (A) (A) (A) (A) (A) (A) (A) (A) (A) (A)
                 (A) (A) (A) (A) (A) (A) (A) (A) (A) (A) (A) (A)
                 (A) (A) (A) (A) (A) (A) (A) (A) (A) (A) (A) (A)
                 (A) (A) (A) (A) (A) (A) (A) (A) (A) (A)
       Virtual   (A) (A) (A) (A) (A) (A) (A) (A) (A) (A) (A) (A)
                 (A) (A) (A) (A) (A) (A) (A) (A) (A) (A) (A) (A)
                 (A) (A) (A) (A) (A) (A) (A) (A) (A) (A) (A) (A)
                 (A) (A) (A) (A) (A) (A) (A) (A) (A) (A) (A) (A)
                 (A) (A) (A) (A) (A) (A) (A) (A) (A) (A) (A) (A)
                 (A) (A) (A) (A) (A) (A) (A) (A) (A) (A) (A) (A)
                 (A) (A) (A) (A) (A) (A) (A) (A) (A) (A) (A) (A)
                 (A) (A) (A) (A) (A) (A) (A) (A) (A) (A) (A) (A)
                 (A) (A) (A) (A) (A) (A) (A) (A) (A) (A) (A) (A)
                 (A) (A) (A) (A) (A) (A) (A) (A) (A) (A) (A) (A)
                 (A) (A) (A) (A) (A) (A) (A) (A) (A) (A) (A) (A)
                 (A) (A) (A) (A) (A) (A) (A) (A) (A) (A) (A) (A)
                 (A) (A) (A) (A) (A) (A) (A) (A) (A) (A) (A) (A)
                 (A) (A) (A) (A) (A) (A) (A) (A) (A) (A)
 Beta  Orbitals:
       Occupied  (A) (A) (A) (A) (A) (A) (A) (A) (A) (A) (A) (A)
                 (A) (A) (A) (A) (A) (A) (A) (A) (A) (A) (A) (A)
                 (A) (A) (A) (A) (A) (A) (A) (A) (A) (A) (A) (A)
                 (A) (A) (A) (A) (A) (A) (A) (A) (A) (A) (A) (A)
                 (A) (A) (A) (A) (A) (A) (A) (A) (A) (A)
       Virtual   (A) (A) (A) (A) (A) (A) (A) (A) (A) (A) (A) (A)
                 (A) (A) (A) (A) (A) (A) (A) (A) (A) (A) (A) (A)
                 (A) (A) (A) (A) (A) (A) (A) (A) (A) (A) (A) (A)
                 (A) (A) (A) (A) (A) (A) (A) (A) (A) (A) (A) (A)
                 (A) (A) (A) (A) (A) (A) (A) (A) (A) (A) (A) (A)
                 (A) (A) (A) (A) (A) (A) (A) (A) (A) (A) (A) (A)
                 (A) (A) (A) (A) (A) (A) (A) (A) (A) (A) (A) (A)
                 (A) (A) (A) (A) (A) (A) (A) (A) (A) (A) (A) (A)
                 (A) (A) (A) (A) (A) (A) (A) (A) (A) (A) (A) (A)
                 (A) (A) (A) (A) (A) (A) (A) (A) (A) (A) (A) (A)
                 (A) (A) (A) (A) (A) (A) (A) (A) (A) (A) (A) (A)
                 (A) (A) (A) (A) (A) (A) (A) (A) (A) (A) (A) (A)
                 (A) (A) (A) (A) (A) (A) (A) (A) (A) (A) (A) (A)
                 (A) (A) (A) (A) (A) (A) (A) (A) (A) (A)
 The electronic state is 1-A.
 Alpha  occ. eigenvalues -- -323.35479 -39.07402 -34.27213 -34.27124 -34.26948
 Alpha  occ. eigenvalues --  -10.39593 -10.39523 -10.39343 -10.39157 -10.37776
 Alpha  occ. eigenvalues --  -10.36838 -10.36501 -10.36441 -10.36336 -10.35787
 Alpha  occ. eigenvalues --  -10.35115 -10.35011  -4.48674  -2.97914  -2.97293
 Alpha  occ. eigenvalues --   -2.96951  -1.06221  -1.01356  -0.92755  -0.91296
 Alpha  occ. eigenvalues --   -0.89939  -0.82738  -0.78622  -0.77394  -0.74937
 Alpha  occ. eigenvalues --   -0.73625  -0.67197  -0.66935  -0.64981  -0.64514
 Alpha  occ. eigenvalues --   -0.62592  -0.60837  -0.59955  -0.58113  -0.57322
 Alpha  occ. eigenvalues --   -0.54637  -0.53629  -0.52736  -0.52457  -0.51930
 Alpha  occ. eigenvalues --   -0.49467  -0.48727  -0.46757  -0.46613  -0.45531
 Alpha  occ. eigenvalues --   -0.45252  -0.45017  -0.44603  -0.44216  -0.44010
 Alpha  occ. eigenvalues --   -0.42585  -0.41408  -0.37355
 Alpha virt. eigenvalues --   -0.05847  -0.02953   0.01212   0.05517   0.06491
 Alpha virt. eigenvalues --    0.07770   0.09380   0.09550   0.11450   0.12211
 Alpha virt. eigenvalues --    0.12470   0.13607   0.14227   0.14315   0.15669
 Alpha virt. eigenvalues --    0.16555   0.17751   0.18489   0.18961   0.18985
 Alpha virt. eigenvalues --    0.19741   0.20269   0.21188   0.22067   0.23053
 Alpha virt. eigenvalues --    0.23706   0.24860   0.26422   0.26889   0.27060
 Alpha virt. eigenvalues --    0.30103   0.32585   0.33064   0.36967   0.38102
 Alpha virt. eigenvalues --    0.41605   0.42558   0.44218   0.45403   0.45808
 Alpha virt. eigenvalues --    0.46955   0.47981   0.49193   0.50776   0.51808
 Alpha virt. eigenvalues --    0.52025   0.53119   0.54346   0.55568   0.56579
 Alpha virt. eigenvalues --    0.58967   0.59626   0.60715   0.61827   0.62629
 Alpha virt. eigenvalues --    0.63395   0.63929   0.64202   0.65700   0.66502
 Alpha virt. eigenvalues --    0.67891   0.68790   0.69430   0.70204   0.70338
 Alpha virt. eigenvalues --    0.71439   0.71640   0.71979   0.72339   0.72829
 Alpha virt. eigenvalues --    0.72998   0.73375   0.73815   0.74597   0.75467
 Alpha virt. eigenvalues --    0.75791   0.76992   0.77387   0.78281   0.79011
 Alpha virt. eigenvalues --    0.79708   0.81160   0.82019   0.83140   0.84834
 Alpha virt. eigenvalues --    0.84945   0.87741   0.92034   0.93513   0.96579
 Alpha virt. eigenvalues --    0.96803   0.98254   1.00029   1.02429   1.05954
 Alpha virt. eigenvalues --    1.08139   1.11775   1.16553   1.24399   1.27381
 Alpha virt. eigenvalues --    1.28806   1.31513   1.34636   1.36862   1.39223
 Alpha virt. eigenvalues --    1.44277   1.46428   1.48250   1.50068   1.51858
 Alpha virt. eigenvalues --    1.55592   1.60955   1.63048   1.67095   1.67935
 Alpha virt. eigenvalues --    1.73437   1.78217   1.79866   1.80699   1.81431
 Alpha virt. eigenvalues --    1.87178   1.88582   1.90568   1.90944   1.92317
 Alpha virt. eigenvalues --    1.93127   1.93409   1.94521   1.97216   1.98814
 Alpha virt. eigenvalues --    1.99978   2.02054   2.04517   2.06084   2.06835
 Alpha virt. eigenvalues --    2.12022   2.14751   2.15763   2.18752   2.20886
 Alpha virt. eigenvalues --    2.22131   2.22350   2.24168   2.31335   2.31719
 Alpha virt. eigenvalues --    2.32890   2.37454   2.41057   2.44126   2.46987
 Alpha virt. eigenvalues --    2.47856   2.48474   2.48591   2.51750   2.52426
 Alpha virt. eigenvalues --    2.57718   2.61089   2.66212   2.66554   2.67312
 Alpha virt. eigenvalues --    2.71874   2.79004   2.81210   2.89133   2.91260
 Alpha virt. eigenvalues --    3.08642
  Beta  occ. eigenvalues -- -323.35479 -39.07402 -34.27213 -34.27124 -34.26948
  Beta  occ. eigenvalues --  -10.39593 -10.39523 -10.39343 -10.39157 -10.37776
  Beta  occ. eigenvalues --  -10.36838 -10.36501 -10.36441 -10.36336 -10.35787
  Beta  occ. eigenvalues --  -10.35115 -10.35011  -4.48674  -2.97914  -2.97293
  Beta  occ. eigenvalues --   -2.96951  -1.06221  -1.01356  -0.92755  -0.91296
  Beta  occ. eigenvalues --   -0.89939  -0.82738  -0.78622  -0.77394  -0.74937
  Beta  occ. eigenvalues --   -0.73625  -0.67197  -0.66935  -0.64981  -0.64514
  Beta  occ. eigenvalues --   -0.62592  -0.60837  -0.59955  -0.58113  -0.57322
  Beta  occ. eigenvalues --   -0.54637  -0.53629  -0.52736  -0.52457  -0.51930
  Beta  occ. eigenvalues --   -0.49467  -0.48727  -0.46757  -0.46613  -0.45531
  Beta  occ. eigenvalues --   -0.45252  -0.45017  -0.44603  -0.44216  -0.44010
  Beta  occ. eigenvalues --   -0.42585  -0.41408  -0.37355
  Beta virt. eigenvalues --   -0.05847  -0.02953   0.01212   0.05517   0.06491
  Beta virt. eigenvalues --    0.07770   0.09380   0.09550   0.11450   0.12211
  Beta virt. eigenvalues --    0.12470   0.13607   0.14227   0.14315   0.15669
  Beta virt. eigenvalues --    0.16555   0.17751   0.18489   0.18961   0.18985
  Beta virt. eigenvalues --    0.19741   0.20269   0.21188   0.22067   0.23053
  Beta virt. eigenvalues --    0.23706   0.24860   0.26422   0.26889   0.27060
  Beta virt. eigenvalues --    0.30103   0.32585   0.33064   0.36967   0.38102
  Beta virt. eigenvalues --    0.41605   0.42558   0.44218   0.45403   0.45808
  Beta virt. eigenvalues --    0.46955   0.47981   0.49193   0.50776   0.51808
  Beta virt. eigenvalues --    0.52025   0.53119   0.54346   0.55568   0.56579
  Beta virt. eigenvalues --    0.58967   0.59626   0.60715   0.61827   0.62629
  Beta virt. eigenvalues --    0.63395   0.63929   0.64202   0.65700   0.66502
  Beta virt. eigenvalues --    0.67891   0.68790   0.69430   0.70204   0.70338
  Beta virt. eigenvalues --    0.71439   0.71640   0.71979   0.72339   0.72829
  Beta virt. eigenvalues --    0.72998   0.73375   0.73815   0.74597   0.75467
  Beta virt. eigenvalues --    0.75791   0.76992   0.77387   0.78281   0.79011
  Beta virt. eigenvalues --    0.79708   0.81160   0.82019   0.83140   0.84834
  Beta virt. eigenvalues --    0.84945   0.87741   0.92034   0.93513   0.96579
  Beta virt. eigenvalues --    0.96803   0.98254   1.00029   1.02429   1.05954
  Beta virt. eigenvalues --    1.08139   1.11775   1.16553   1.24399   1.27381
  Beta virt. eigenvalues --    1.28806   1.31513   1.34636   1.36862   1.39223
  Beta virt. eigenvalues --    1.44277   1.46428   1.48250   1.50068   1.51858
  Beta virt. eigenvalues --    1.55592   1.60955   1.63048   1.67095   1.67935
  Beta virt. eigenvalues --    1.73437   1.78217   1.79866   1.80699   1.81431
  Beta virt. eigenvalues --    1.87178   1.88582   1.90568   1.90944   1.92317
  Beta virt. eigenvalues --    1.93127   1.93409   1.94521   1.97216   1.98814
  Beta virt. eigenvalues --    1.99978   2.02054   2.04517   2.06084   2.06835
  Beta virt. eigenvalues --    2.12022   2.14751   2.15763   2.18752   2.20886
  Beta virt. eigenvalues --    2.22131   2.22350   2.24168   2.31335   2.31719
  Beta virt. eigenvalues --    2.32890   2.37454   2.41057   2.44126   2.46987
  Beta virt. eigenvalues --    2.47856   2.48474   2.48591   2.51750   2.52426
  Beta virt. eigenvalues --    2.57718   2.61089   2.66212   2.66554   2.67312
  Beta virt. eigenvalues --    2.71874   2.79004   2.81210   2.89133   2.91260
  Beta virt. eigenvalues --    3.08642
          Condensed to atoms (all electrons):
               1          2          3          4          5          6
     1  C    5.295091  -0.007993  -0.062093  -0.014730   0.005375   0.001856
     2  C   -0.007993   5.031764   0.578750  -0.038377   0.005681  -0.010003
     3  C   -0.062093   0.578750   4.979181   0.318577  -0.018046  -0.012308
     4  C   -0.014730  -0.038377   0.318577   4.901701   0.379150   0.351467
     5  H    0.005375   0.005681  -0.018046   0.379150   0.529346  -0.018820
     6  H    0.001856  -0.010003  -0.012308   0.351467  -0.018820   0.539111
     7  C    0.259779  -0.019521  -0.020111   0.378282  -0.024256  -0.019081
     8  H   -0.027784   0.006270   0.002242  -0.036958  -0.006429   0.005911
     9  H   -0.026290   0.000445   0.004377  -0.018649  -0.001163  -0.005192
    10  H    0.397988   0.005425  -0.000145   0.002788  -0.000159   0.000441
    11  H    0.000027  -0.036820   0.404040  -0.041063  -0.004983   0.002019
    12  H    0.008296   0.420632  -0.042004   0.008679  -0.000149  -0.000293
    13  H   -0.043582  -0.038162   0.005179  -0.000890   0.000025  -0.000057
    14  C    0.238977   0.206353   0.016027  -0.046933   0.001103   0.000146
    15  Cu   0.126743  -0.014476   0.006126  -0.002801  -0.000573   0.000888
    16  H    0.001479   0.000002  -0.000021   0.000309  -0.000007  -0.000003
    17  H   -0.000010  -0.000134  -0.000009   0.000001   0.000000  -0.000000
    18  H   -0.000001  -0.000000  -0.000000   0.000000   0.000000  -0.000000
    19  C    0.000680   0.000112   0.000016  -0.000044  -0.000000   0.000001
    20  C   -0.000051  -0.000011   0.000002   0.000004   0.000000  -0.000000
    21  C   -0.001088  -0.000871  -0.000112   0.000145   0.000007  -0.000002
    22  C    0.000012   0.000080  -0.000003  -0.000020  -0.000000   0.000000
    23  C   -0.000824  -0.000026  -0.000003   0.000065   0.000000  -0.000001
    24  H   -0.000106   0.000289   0.000150  -0.000026  -0.000003   0.000001
    25  H    0.000198   0.000012  -0.000003  -0.000001   0.000000  -0.000000
    26  H   -0.000003  -0.000000  -0.000000  -0.000000   0.000000   0.000000
    27  C   -0.000999   0.000016  -0.000001  -0.000005  -0.000000   0.000000
    28  H    0.000019  -0.000000  -0.000000  -0.000000   0.000000  -0.000000
    29  H    0.000017   0.000000  -0.000000   0.000000   0.000000  -0.000000
               7          8          9         10         11         12
     1  C    0.259779  -0.027784  -0.026290   0.397988   0.000027   0.008296
     2  C   -0.019521   0.006270   0.000445   0.005425  -0.036820   0.420632
     3  C   -0.020111   0.002242   0.004377  -0.000145   0.404040  -0.042004
     4  C    0.378282  -0.036958  -0.018649   0.002788  -0.041063   0.008679
     5  H   -0.024256  -0.006429  -0.001163  -0.000159  -0.004983  -0.000149
     6  H   -0.019081   0.005911  -0.005192   0.000441   0.002019  -0.000293
     7  C    5.007214   0.367728   0.376936  -0.031140   0.004337  -0.000823
     8  H    0.367728   0.563524  -0.020807   0.002689   0.000389  -0.000084
     9  H    0.376936  -0.020807   0.514254  -0.005658  -0.000155   0.000021
    10  H   -0.031140   0.002689  -0.005658   0.495149   0.000025  -0.000131
    11  H    0.004337   0.000389  -0.000155   0.000025   0.519605  -0.008925
    12  H   -0.000823  -0.000084   0.000021  -0.000131  -0.008925   0.536841
    13  H    0.006660  -0.000271  -0.000083  -0.007216  -0.000141  -0.005446
    14  C   -0.030010  -0.016803   0.007440  -0.033583   0.007414  -0.061689
    15  Cu  -0.004157  -0.001293   0.000558  -0.001843   0.000086   0.000877
    16  H   -0.000750   0.000915   0.000852   0.000439   0.000000  -0.000000
    17  H   -0.000011  -0.000026  -0.000000  -0.000005  -0.000000  -0.000010
    18  H   -0.000007  -0.000001   0.000001   0.000000   0.000000   0.000000
    19  C    0.000288  -0.000237   0.000019   0.000119  -0.000000  -0.000002
    20  C   -0.000109   0.000153  -0.000009  -0.000085   0.000000   0.000001
    21  C   -0.001989   0.002200  -0.000035  -0.000058   0.000001   0.000015
    22  C    0.000123  -0.000843   0.000059   0.000029  -0.000000  -0.000000
    23  C   -0.000324   0.000285  -0.000139  -0.000049   0.000000   0.000000
    24  H   -0.000101   0.001244  -0.000001   0.000000   0.000000  -0.000015
    25  H   -0.000047  -0.000066  -0.000004   0.000930   0.000000  -0.000002
    26  H    0.000000  -0.000001   0.000000   0.000001  -0.000000   0.000000
    27  C    0.000209  -0.000068   0.000012   0.000306  -0.000000  -0.000000
    28  H    0.000002  -0.000047  -0.000006  -0.000012  -0.000000  -0.000000
    29  H   -0.000005  -0.000000   0.000000  -0.000007  -0.000000   0.000000
              13         14         15         16         17         18
     1  C   -0.043582   0.238977   0.126743   0.001479  -0.000010  -0.000001
     2  C   -0.038162   0.206353  -0.014476   0.000002  -0.000134  -0.000000
     3  C    0.005179   0.016027   0.006126  -0.000021  -0.000009  -0.000000
     4  C   -0.000890  -0.046933  -0.002801   0.000309   0.000001   0.000000
     5  H    0.000025   0.001103  -0.000573  -0.000007   0.000000   0.000000
     6  H   -0.000057   0.000146   0.000888  -0.000003  -0.000000  -0.000000
     7  C    0.006660  -0.030010  -0.004157  -0.000750  -0.000011  -0.000007
     8  H   -0.000271  -0.016803  -0.001293   0.000915  -0.000026  -0.000001
     9  H   -0.000083   0.007440   0.000558   0.000852  -0.000000   0.000001
    10  H   -0.007216  -0.033583  -0.001843   0.000439  -0.000005   0.000000
    11  H   -0.000141   0.007414   0.000086   0.000000  -0.000000   0.000000
    12  H   -0.005446  -0.061689   0.000877  -0.000000  -0.000010   0.000000
    13  H    0.494146   0.404647   0.003899  -0.000037  -0.000071  -0.000000
    14  C    0.404647   5.348670   0.169941  -0.000014   0.000226   0.000002
    15  Cu   0.003899   0.169941  28.032433   0.004247   0.006367   0.000841
    16  H   -0.000037  -0.000014   0.004247   0.565276   0.000013   0.002575
    17  H   -0.000071   0.000226   0.006367   0.000013   0.492554  -0.000487
    18  H   -0.000000   0.000002   0.000841   0.002575  -0.000487   0.522738
    19  C    0.000257  -0.000984   0.154209   0.002016   0.411480   0.008482
    20  C   -0.000039  -0.000298  -0.023560   0.003670  -0.042385  -0.015007
    21  C   -0.000159   0.001654   0.152271  -0.018186  -0.060136  -0.026333
    22  C    0.000021  -0.000094  -0.019725  -0.000970   0.017138   0.369851
    23  C   -0.000012  -0.000060  -0.002366   0.350650  -0.000921  -0.011516
    24  H   -0.000001  -0.000223   0.001649   0.000712  -0.003074  -0.001604
    25  H   -0.000068  -0.000323   0.010565  -0.010736   0.000496  -0.000753
    26  H    0.000000   0.000000   0.000775  -0.000733  -0.001733  -0.003524
    27  C    0.000005   0.000222   0.002672  -0.015930   0.000042   0.005568
    28  H   -0.000000  -0.000001   0.000749  -0.022305   0.000038  -0.008545
    29  H    0.000000  -0.000001  -0.000228   0.003896  -0.000046   0.000268
              19         20         21         22         23         24
     1  C    0.000680  -0.000051  -0.001088   0.000012  -0.000824  -0.000106
     2  C    0.000112  -0.000011  -0.000871   0.000080  -0.000026   0.000289
     3  C    0.000016   0.000002  -0.000112  -0.000003  -0.000003   0.000150
     4  C   -0.000044   0.000004   0.000145  -0.000020   0.000065  -0.000026
     5  H   -0.000000   0.000000   0.000007  -0.000000   0.000000  -0.000003
     6  H    0.000001  -0.000000  -0.000002   0.000000  -0.000001   0.000001
     7  C    0.000288  -0.000109  -0.001989   0.000123  -0.000324  -0.000101
     8  H   -0.000237   0.000153   0.002200  -0.000843   0.000285   0.001244
     9  H    0.000019  -0.000009  -0.000035   0.000059  -0.000139  -0.000001
    10  H    0.000119  -0.000085  -0.000058   0.000029  -0.000049   0.000000
    11  H   -0.000000   0.000000   0.000001  -0.000000   0.000000   0.000000
    12  H   -0.000002   0.000001   0.000015  -0.000000   0.000000  -0.000015
    13  H    0.000257  -0.000039  -0.000159   0.000021  -0.000012  -0.000001
    14  C   -0.000984  -0.000298   0.001654  -0.000094  -0.000060  -0.000223
    15  Cu   0.154209  -0.023560   0.152271  -0.019725  -0.002366   0.001649
    16  H    0.002016   0.003670  -0.018186  -0.000970   0.350650   0.000712
    17  H    0.411480  -0.042385  -0.060136   0.017138  -0.000921  -0.003074
    18  H    0.008482  -0.015007  -0.026333   0.369851  -0.011516  -0.001604
    19  C    5.591031   0.045607   0.063587   0.018657  -0.035351  -0.056198
    20  C    0.045607   5.441451   0.021209   0.162757  -0.102837   0.016684
    21  C    0.063587   0.021209   5.511038   0.082644   0.008097   0.406105
    22  C    0.018657   0.162757   0.082644   5.403952   0.285411  -0.039865
    23  C   -0.035351  -0.102837   0.008097   0.285411   4.935832  -0.000257
    24  H   -0.056198   0.016684   0.406105  -0.039865  -0.000257   0.499307
    25  H   -0.018042  -0.004341   0.001541   0.004584  -0.018899  -0.000020
    26  H   -0.024995   0.368983   0.007966  -0.014648   0.005450  -0.000475
    27  C    0.007179   0.285487  -0.034602  -0.105318   0.402191  -0.000886
    28  H   -0.000523  -0.000051   0.005520  -0.004996   0.347886  -0.000071
    29  H    0.005593  -0.005592  -0.000668   0.000964  -0.001464   0.000043
              25         26         27         28         29
     1  C    0.000198  -0.000003  -0.000999   0.000019   0.000017
     2  C    0.000012  -0.000000   0.000016  -0.000000   0.000000
     3  C   -0.000003  -0.000000  -0.000001  -0.000000  -0.000000
     4  C   -0.000001  -0.000000  -0.000005  -0.000000   0.000000
     5  H    0.000000   0.000000  -0.000000   0.000000   0.000000
     6  H   -0.000000   0.000000   0.000000  -0.000000  -0.000000
     7  C   -0.000047   0.000000   0.000209   0.000002  -0.000005
     8  H   -0.000066  -0.000001  -0.000068  -0.000047  -0.000000
     9  H   -0.000004   0.000000   0.000012  -0.000006   0.000000
    10  H    0.000930   0.000001   0.000306  -0.000012  -0.000007
    11  H    0.000000  -0.000000  -0.000000  -0.000000  -0.000000
    12  H   -0.000002   0.000000  -0.000000  -0.000000   0.000000
    13  H   -0.000068   0.000000   0.000005  -0.000000   0.000000
    14  C   -0.000323   0.000000   0.000222  -0.000001  -0.000001
    15  Cu   0.010565   0.000775   0.002672   0.000749  -0.000228
    16  H   -0.010736  -0.000733  -0.015930  -0.022305   0.003896
    17  H    0.000496  -0.001733   0.000042   0.000038  -0.000046
    18  H   -0.000753  -0.003524   0.005568  -0.008545   0.000268
    19  C   -0.018042  -0.024995   0.007179  -0.000523   0.005593
    20  C   -0.004341   0.368983   0.285487  -0.000051  -0.005592
    21  C    0.001541   0.007966  -0.034602   0.005520  -0.000668
    22  C    0.004584  -0.014648  -0.105318  -0.004996   0.000964
    23  C   -0.018899   0.005450   0.402191   0.347886  -0.001464
    24  H   -0.000020  -0.000475  -0.000886  -0.000071   0.000043
    25  H    0.570481   0.002523   0.350257   0.003688  -0.022108
    26  H    0.002523   0.521085  -0.011649   0.000308  -0.008181
    27  C    0.350257  -0.011649   4.938538  -0.000815   0.348184
    28  H    0.003688   0.000308  -0.000815   0.539027  -0.011118
    29  H   -0.022108  -0.008181   0.348184  -0.011118   0.538670
          Atomic-Atomic Spin Densities.
               1          2          3          4          5          6
     1  C   -0.000000  -0.000000  -0.000000   0.000000  -0.000000   0.000000
     2  C   -0.000000   0.000000  -0.000000   0.000000   0.000000  -0.000000
     3  C   -0.000000  -0.000000   0.000000  -0.000000  -0.000000   0.000000
     4  C    0.000000   0.000000  -0.000000  -0.000000   0.000000  -0.000000
     5  H   -0.000000   0.000000  -0.000000   0.000000   0.000000   0.000000
     6  H    0.000000  -0.000000   0.000000  -0.000000   0.000000   0.000000
     7  C   -0.000000  -0.000000   0.000000   0.000000   0.000000   0.000000
     8  H    0.000000   0.000000  -0.000000  -0.000000  -0.000000   0.000000
     9  H   -0.000000   0.000000  -0.000000  -0.000000   0.000000  -0.000000
    10  H    0.000000   0.000000  -0.000000   0.000000  -0.000000   0.000000
    11  H    0.000000  -0.000000   0.000000   0.000000  -0.000000  -0.000000
    12  H   -0.000000   0.000000  -0.000000  -0.000000   0.000000   0.000000
    13  H   -0.000000  -0.000000   0.000000  -0.000000   0.000000  -0.000000
    14  C    0.000000  -0.000000   0.000000  -0.000000   0.000000   0.000000
    15  Cu  -0.000000  -0.000000   0.000000  -0.000000  -0.000000   0.000000
    16  H    0.000000  -0.000000   0.000000   0.000000   0.000000  -0.000000
    17  H    0.000000  -0.000000  -0.000000   0.000000   0.000000  -0.000000
    18  H    0.000000  -0.000000  -0.000000  -0.000000   0.000000   0.000000
    19  C    0.000000  -0.000000  -0.000000   0.000000   0.000000  -0.000000
    20  C   -0.000000   0.000000   0.000000  -0.000000  -0.000000   0.000000
    21  C   -0.000000   0.000000   0.000000  -0.000000  -0.000000   0.000000
    22  C    0.000000  -0.000000  -0.000000   0.000000   0.000000  -0.000000
    23  C    0.000000   0.000000  -0.000000  -0.000000  -0.000000   0.000000
    24  H   -0.000000  -0.000000  -0.000000   0.000000   0.000000   0.000000
    25  H    0.000000   0.000000  -0.000000   0.000000  -0.000000  -0.000000
    26  H    0.000000   0.000000  -0.000000  -0.000000  -0.000000   0.000000
    27  C   -0.000000  -0.000000  -0.000000   0.000000   0.000000  -0.000000
    28  H   -0.000000  -0.000000   0.000000   0.000000   0.000000  -0.000000
    29  H    0.000000   0.000000  -0.000000  -0.000000  -0.000000   0.000000
               7          8          9         10         11         12
     1  C   -0.000000   0.000000  -0.000000   0.000000   0.000000  -0.000000
     2  C   -0.000000   0.000000   0.000000   0.000000  -0.000000   0.000000
     3  C    0.000000  -0.000000  -0.000000  -0.000000   0.000000  -0.000000
     4  C    0.000000  -0.000000  -0.000000   0.000000   0.000000  -0.000000
     5  H    0.000000  -0.000000   0.000000  -0.000000  -0.000000   0.000000
     6  H    0.000000   0.000000  -0.000000   0.000000  -0.000000   0.000000
     7  C    0.000000  -0.000000   0.000000  -0.000000  -0.000000   0.000000
     8  H   -0.000000   0.000000  -0.000000   0.000000   0.000000   0.000000
     9  H    0.000000  -0.000000  -0.000000   0.000000   0.000000  -0.000000
    10  H   -0.000000   0.000000   0.000000   0.000000  -0.000000   0.000000
    11  H   -0.000000   0.000000   0.000000  -0.000000  -0.000000   0.000000
    12  H    0.000000   0.000000  -0.000000   0.000000   0.000000  -0.000000
    13  H    0.000000  -0.000000   0.000000  -0.000000  -0.000000   0.000000
    14  C    0.000000  -0.000000  -0.000000  -0.000000  -0.000000   0.000000
    15  Cu   0.000000  -0.000000  -0.000000  -0.000000   0.000000  -0.000000
    16  H   -0.000000  -0.000000   0.000000  -0.000000  -0.000000   0.000000
    17  H   -0.000000  -0.000000  -0.000000  -0.000000  -0.000000   0.000000
    18  H   -0.000000  -0.000000   0.000000  -0.000000  -0.000000  -0.000000
    19  C   -0.000000  -0.000000  -0.000000  -0.000000   0.000000   0.000000
    20  C    0.000000  -0.000000   0.000000   0.000000  -0.000000  -0.000000
    21  C    0.000000   0.000000   0.000000   0.000000   0.000000  -0.000000
    22  C   -0.000000  -0.000000  -0.000000  -0.000000   0.000000   0.000000
    23  C    0.000000  -0.000000   0.000000   0.000000  -0.000000  -0.000000
    24  H    0.000000   0.000000  -0.000000   0.000000   0.000000   0.000000
    25  H   -0.000000  -0.000000   0.000000   0.000000  -0.000000   0.000000
    26  H   -0.000000  -0.000000   0.000000  -0.000000   0.000000  -0.000000
    27  C   -0.000000   0.000000  -0.000000  -0.000000   0.000000   0.000000
    28  H   -0.000000   0.000000  -0.000000  -0.000000   0.000000  -0.000000
    29  H    0.000000  -0.000000   0.000000   0.000000  -0.000000  -0.000000
              13         14         15         16         17         18
     1  C   -0.000000   0.000000  -0.000000   0.000000   0.000000   0.000000
     2  C   -0.000000  -0.000000  -0.000000  -0.000000  -0.000000  -0.000000
     3  C    0.000000   0.000000   0.000000   0.000000  -0.000000  -0.000000
     4  C   -0.000000  -0.000000  -0.000000   0.000000   0.000000  -0.000000
     5  H    0.000000   0.000000  -0.000000   0.000000   0.000000   0.000000
     6  H   -0.000000   0.000000   0.000000  -0.000000  -0.000000   0.000000
     7  C    0.000000   0.000000   0.000000  -0.000000  -0.000000  -0.000000
     8  H   -0.000000  -0.000000  -0.000000  -0.000000  -0.000000  -0.000000
     9  H    0.000000  -0.000000  -0.000000   0.000000  -0.000000   0.000000
    10  H   -0.000000  -0.000000  -0.000000  -0.000000  -0.000000  -0.000000
    11  H   -0.000000  -0.000000   0.000000  -0.000000  -0.000000  -0.000000
    12  H    0.000000   0.000000  -0.000000   0.000000   0.000000  -0.000000
    13  H   -0.000000   0.000000   0.000000  -0.000000  -0.000000  -0.000000
    14  C    0.000000   0.000000   0.000000  -0.000000  -0.000000  -0.000000
    15  Cu   0.000000   0.000000   0.000000   0.000000   0.000000   0.000000
    16  H   -0.000000  -0.000000   0.000000   0.000000  -0.000000  -0.000000
    17  H   -0.000000  -0.000000   0.000000  -0.000000  -0.000000  -0.000000
    18  H   -0.000000  -0.000000   0.000000  -0.000000  -0.000000   0.000000
    19  C   -0.000000   0.000000   0.000000  -0.000000  -0.000000  -0.000000
    20  C    0.000000   0.000000  -0.000000   0.000000   0.000000   0.000000
    21  C    0.000000   0.000000  -0.000000   0.000000   0.000000   0.000000
    22  C   -0.000000  -0.000000   0.000000  -0.000000  -0.000000  -0.000000
    23  C    0.000000   0.000000  -0.000000   0.000000   0.000000   0.000000
    24  H    0.000000   0.000000  -0.000000   0.000000   0.000000   0.000000
    25  H    0.000000  -0.000000  -0.000000   0.000000   0.000000   0.000000
    26  H    0.000000  -0.000000  -0.000000  -0.000000   0.000000  -0.000000
    27  C   -0.000000  -0.000000  -0.000000  -0.000000  -0.000000  -0.000000
    28  H   -0.000000   0.000000   0.000000   0.000000   0.000000  -0.000000
    29  H    0.000000  -0.000000   0.000000  -0.000000  -0.000000   0.000000
              19         20         21         22         23         24
     1  C    0.000000  -0.000000  -0.000000   0.000000   0.000000  -0.000000
     2  C   -0.000000   0.000000   0.000000  -0.000000   0.000000  -0.000000
     3  C   -0.000000   0.000000   0.000000  -0.000000  -0.000000  -0.000000
     4  C    0.000000  -0.000000  -0.000000   0.000000  -0.000000   0.000000
     5  H    0.000000  -0.000000  -0.000000   0.000000  -0.000000   0.000000
     6  H   -0.000000   0.000000   0.000000  -0.000000   0.000000   0.000000
     7  C   -0.000000   0.000000   0.000000  -0.000000   0.000000   0.000000
     8  H   -0.000000  -0.000000   0.000000  -0.000000  -0.000000   0.000000
     9  H   -0.000000   0.000000   0.000000  -0.000000   0.000000  -0.000000
    10  H   -0.000000   0.000000   0.000000  -0.000000   0.000000   0.000000
    11  H    0.000000  -0.000000   0.000000   0.000000  -0.000000   0.000000
    12  H    0.000000  -0.000000  -0.000000   0.000000  -0.000000   0.000000
    13  H   -0.000000   0.000000   0.000000  -0.000000   0.000000   0.000000
    14  C    0.000000   0.000000   0.000000  -0.000000   0.000000   0.000000
    15  Cu   0.000000  -0.000000  -0.000000   0.000000  -0.000000  -0.000000
    16  H   -0.000000   0.000000   0.000000  -0.000000   0.000000   0.000000
    17  H   -0.000000   0.000000   0.000000  -0.000000   0.000000   0.000000
    18  H   -0.000000   0.000000   0.000000  -0.000000   0.000000   0.000000
    19  C   -0.000000   0.000000   0.000000  -0.000000   0.000000   0.000000
    20  C    0.000000  -0.000000  -0.000000   0.000000  -0.000000  -0.000000
    21  C    0.000000  -0.000000  -0.000000   0.000000  -0.000000  -0.000000
    22  C   -0.000000   0.000000   0.000000  -0.000000   0.000000   0.000000
    23  C    0.000000  -0.000000  -0.000000   0.000000  -0.000000  -0.000000
    24  H    0.000000  -0.000000  -0.000000   0.000000  -0.000000  -0.000000
    25  H    0.000000  -0.000000  -0.000000   0.000000  -0.000000  -0.000000
    26  H   -0.000000   0.000000  -0.000000  -0.000000   0.000000  -0.000000
    27  C   -0.000000   0.000000   0.000000  -0.000000   0.000000   0.000000
    28  H    0.000000  -0.000000  -0.000000   0.000000  -0.000000   0.000000
    29  H    0.000000  -0.000000   0.000000   0.000000  -0.000000  -0.000000
              25         26         27         28         29
     1  C    0.000000   0.000000  -0.000000  -0.000000   0.000000
     2  C    0.000000   0.000000  -0.000000  -0.000000   0.000000
     3  C   -0.000000  -0.000000  -0.000000   0.000000  -0.000000
     4  C    0.000000  -0.000000   0.000000   0.000000  -0.000000
     5  H   -0.000000  -0.000000   0.000000   0.000000  -0.000000
     6  H   -0.000000   0.000000  -0.000000  -0.000000   0.000000
     7  C   -0.000000  -0.000000  -0.000000  -0.000000   0.000000
     8  H   -0.000000  -0.000000   0.000000   0.000000  -0.000000
     9  H    0.000000   0.000000  -0.000000  -0.000000   0.000000
    10  H    0.000000  -0.000000  -0.000000  -0.000000   0.000000
    11  H   -0.000000   0.000000   0.000000   0.000000  -0.000000
    12  H    0.000000  -0.000000   0.000000  -0.000000  -0.000000
    13  H    0.000000   0.000000  -0.000000  -0.000000   0.000000
    14  C   -0.000000  -0.000000  -0.000000   0.000000  -0.000000
    15  Cu  -0.000000  -0.000000  -0.000000   0.000000   0.000000
    16  H    0.000000  -0.000000  -0.000000   0.000000  -0.000000
    17  H    0.000000   0.000000  -0.000000   0.000000  -0.000000
    18  H    0.000000  -0.000000  -0.000000  -0.000000   0.000000
    19  C    0.000000  -0.000000  -0.000000   0.000000   0.000000
    20  C   -0.000000   0.000000   0.000000  -0.000000  -0.000000
    21  C   -0.000000  -0.000000   0.000000  -0.000000   0.000000
    22  C    0.000000  -0.000000  -0.000000   0.000000   0.000000
    23  C   -0.000000   0.000000   0.000000  -0.000000  -0.000000
    24  H   -0.000000  -0.000000   0.000000   0.000000  -0.000000
    25  H    0.000000   0.000000   0.000000  -0.000000  -0.000000
    26  H    0.000000   0.000000  -0.000000  -0.000000   0.000000
    27  C    0.000000  -0.000000  -0.000000  -0.000000   0.000000
    28  H   -0.000000  -0.000000  -0.000000   0.000000   0.000000
    29  H   -0.000000   0.000000   0.000000   0.000000  -0.000000
 Mulliken charges and spin densities:
               1          2
     1  C   -0.150983  -0.000000
     2  C   -0.089436  -0.000000
     3  C   -0.159806   0.000000
     4  C   -0.140670  -0.000000
     5  H    0.153900   0.000000
     6  H    0.163920   0.000000
     7  C   -0.249120   0.000000
     8  H    0.158167  -0.000000
     9  H    0.173219  -0.000000
    10  H    0.173764  -0.000000
    11  H    0.154144   0.000000
    12  H    0.144214  -0.000000
    13  H    0.181394   0.000000
    14  C   -0.211805   0.000000
    15  Cu   0.395127   0.000000
    16  H    0.132642   0.000000
    17  H    0.180704  -0.000000
    18  H    0.157450   0.000000
    19  C   -0.172958   0.000000
    20  C   -0.151632   0.000000
    21  C   -0.119762  -0.000000
    22  C   -0.159800  -0.000000
    23  C   -0.160819   0.000000
    24  H    0.176739  -0.000000
    25  H    0.130137   0.000000
    26  H    0.158851   0.000000
    27  C   -0.170615  -0.000000
    28  H    0.151253   0.000000
    29  H    0.151781   0.000000
 Sum of Mulliken charges =   1.00000  -0.00000
 Mulliken charges and spin densities with hydrogens summed into heavy atoms:
               1          2
     1  C    0.022780  -0.000000
     2  C    0.054777  -0.000000
     3  C   -0.005662   0.000000
     4  C    0.177150  -0.000000
     7  C    0.082267   0.000000
    14  C   -0.030411   0.000000
    15  Cu   0.395127   0.000000
    19  C    0.007746   0.000000
    20  C    0.007219   0.000000
    21  C    0.056978  -0.000000
    22  C   -0.002349  -0.000000
    23  C    0.123076   0.000000
    27  C    0.111302  -0.000000
 Electronic spatial extent (au):  <R**2>=           2896.9600
 Charge=              1.0000 electrons
 Dipole moment (field-independent basis, Debye):
    X=             -0.1626    Y=             -0.8220    Z=             -0.0002  Tot=              0.8379
 Quadrupole moment (field-independent basis, Debye-Ang):
   XX=            -59.2724   YY=            -72.9874   ZZ=            -76.8836
   XY=             -0.7415   XZ=             -1.1513   YZ=              0.7119
 Traceless Quadrupole moment (field-independent basis, Debye-Ang):
   XX=             10.4421   YY=             -3.2729   ZZ=             -7.1692
   XY=             -0.7415   XZ=             -1.1513   YZ=              0.7119
 Octapole moment (field-independent basis, Debye-Ang**2):
  XXX=              5.4131  YYY=            -26.8997  ZZZ=             -6.3466  XYY=             -2.7281
  XXY=              1.1990  XXZ=             12.0409  XZZ=             -2.6505  YZZ=             -6.4104
  YYZ=             -5.3389  XYZ=             -0.6732
 Hexadecapole moment (field-independent basis, Debye-Ang**3):
 XXXX=          -2535.1159 YYYY=           -577.8570 ZZZZ=           -414.3117 XXXY=              5.0861
 XXXZ=            -70.9482 YYYX=             -1.4163 YYYZ=              6.8154 ZZZX=              0.4241
 ZZZY=             11.0067 XXYY=           -519.8665 XXZZ=           -514.8782 YYZZ=           -175.0933
 XXYZ=              2.4317 YYXZ=             -0.9063 ZZXY=              7.3586
 N-N= 1.116151067342D+03 E-N=-7.212486749956D+03  KE= 2.097431752018D+03
                          Isotropic Fermi Contact Couplings
        Atom                 a.u.       MegaHertz       Gauss      10(-4) cm-1
     1  C(13)             -0.00000      -0.00000      -0.00000      -0.00000
     2  C(13)              0.00000       0.00000       0.00000       0.00000
     3  C(13)             -0.00000      -0.00000      -0.00000      -0.00000
     4  C(13)              0.00000       0.00000       0.00000       0.00000
     5  H(1)               0.00000       0.00000       0.00000       0.00000
     6  H(1)               0.00000       0.00000       0.00000       0.00000
     7  C(13)             -0.00000      -0.00000      -0.00000      -0.00000
     8  H(1)              -0.00000      -0.00000      -0.00000      -0.00000
     9  H(1)              -0.00000      -0.00000      -0.00000      -0.00000
    10  H(1)              -0.00000      -0.00000      -0.00000      -0.00000
    11  H(1)               0.00000       0.00000       0.00000       0.00000
    12  H(1)              -0.00000      -0.00000      -0.00000      -0.00000
    13  H(1)               0.00000       0.00000       0.00000       0.00000
    14  C(13)              0.00000       0.00000       0.00000       0.00000
    15  Cu(63)            -0.00000      -0.00000      -0.00000      -0.00000
    16  H(1)              -0.00000      -0.00000      -0.00000      -0.00000
    17  H(1)              -0.00000      -0.00000      -0.00000      -0.00000
    18  H(1)              -0.00000      -0.00000      -0.00000      -0.00000
    19  C(13)             -0.00000      -0.00000      -0.00000      -0.00000
    20  C(13)              0.00000       0.00000       0.00000       0.00000
    21  C(13)             -0.00000      -0.00000      -0.00000      -0.00000
    22  C(13)              0.00000       0.00000       0.00000       0.00000
    23  C(13)             -0.00000      -0.00000      -0.00000      -0.00000
    24  H(1)              -0.00000      -0.00000      -0.00000      -0.00000
    25  H(1)               0.00000       0.00000       0.00000       0.00000
    26  H(1)               0.00000       0.00000       0.00000       0.00000
    27  C(13)             -0.00000      -0.00000      -0.00000      -0.00000
    28  H(1)              -0.00000      -0.00000      -0.00000      -0.00000
    29  H(1)               0.00000       0.00000       0.00000       0.00000
 --------------------------------------------------------
       Center         ----  Spin Dipole Couplings  ----
                      3XX-RR        3YY-RR        3ZZ-RR
 --------------------------------------------------------
     1   Atom        0.000000     -0.000000      0.000000
     2   Atom       -0.000000      0.000000     -0.000000
     3   Atom        0.000000      0.000000     -0.000000
     4   Atom       -0.000000      0.000000     -0.000000
     5   Atom        0.000000     -0.000000      0.000000
     6   Atom        0.000000     -0.000000     -0.000000
     7   Atom        0.000000      0.000000     -0.000000
     8   Atom       -0.000000      0.000000      0.000000
     9   Atom       -0.000000      0.000000     -0.000000
    10   Atom        0.000000     -0.000000      0.000000
    11   Atom       -0.000000     -0.000000      0.000000
    12   Atom       -0.000000      0.000000     -0.000000
    13   Atom       -0.000000     -0.000000      0.000000
    14   Atom       -0.000000      0.000000     -0.000000
    15   Atom       -0.000000     -0.000000      0.000000
    16   Atom       -0.000000      0.000000      0.000000
    17   Atom        0.000000     -0.000000      0.000000
    18   Atom        0.000000     -0.000000      0.000000
    19   Atom        0.000000      0.000000     -0.000000
[...]
 -0.00374007,0.01337156,-0.00508839,-0.00004852,0.00025131,0.00031100,-
 0.00929652,0.03467016,-0.00068918,0.01211367,-0.01514283,0.01178337,-0
 .08447760,0.00683084,-0.02355590,0.62633863,-0.00088554,-0.00059678,-0
 .00012355,-0.00005470,0.00003815,0.00007799,0.00000122,-0.00003334,0.0
 0001699,-0.00003126,-0.00000445,-0.00007911,-0.00001656,0.00000220,0.0
 0001589,-0.00001540,-0.00000420,-0.00000978,-0.00007122,-0.00006722,0.
 00013570,-0.00005006,-0.00009030,-0.00023124,-0.00006571,0.00005074,-0
 .00003633,0.00006404,-0.00009822,0.00007118,0.00000888,0.00000219,0.00
 001471,0.00001029,-0.00000149,0.00000933,-0.00002742,0.00002484,0.0000
 1821,0.00012983,0.00007878,-0.00015591,-0.00681355,-0.00336132,-0.0028
 6796,0.05563896,-0.05967101,0.00249139,-0.00166207,0.00063139,-0.00260
 707,-0.00437238,0.00898809,-0.00408465,-0.00155435,-0.00161545,0.00222
 788,0.03280085,-0.05130661,-0.00171890,0.00565543,-0.01983385,0.004810
 93,0.01445149,-0.11182861,0.05703026,0.01449598,0.58887995,0.00007694,
 -0.00049680,0.00000888,0.00001145,-0.00000142,-0.00000654,0.00001120,-
 0.00001427,-0.00003583,0.00006810,-0.00005054,0.00013029,-0.00001948,-
 0.00000461,0.00000492,0.00005527,0.00002736,-0.00002644,0.00010716,0.0
 0019014,-0.00026614,0.00026461,-0.00006918,0.00027612,-0.00004421,-0.0
 0002187,-0.00004080,-0.00007277,0.00004574,-0.00000499,0.00000744,0.00
 000726,0.00000388,0.00002061,0.00000755,0.00000547,-0.00003104,0.00001
 435,0.00002926,0.00003069,-0.00006866,-0.00003429,-0.00526776,-0.00461
 769,0.00014004,-0.01216469,0.00077871,-0.05068683,-0.00065944,0.000430
 25,-0.00111108,-0.00362404,0.01603122,-0.00785123,0.00279474,-0.000920
 11,-0.00574818,-0.00130606,-0.00466084,-0.00554166,0.00677486,0.012905
 29,0.00159920,-0.04002802,0.05878925,-0.09991804,0.02202814,0.03002675
 ,0.35831334,0.00049667,-0.00016993,0.00025818,-0.00000035,0.00006438,-
 0.00006058,0.00000934,-0.00006571,0.00009567,-0.00003524,0.00005902,-0
 .00002960,-0.00001233,0.00001448,0.00000368,0.00000411,0.00000773,0.00
 000776,-0.00000321,0.00005025,0.00005821,-0.00006977,0.00008549,-0.000
 08525,-0.00003632,0.00001712,0.00002700,-0.00005497,0.00000637,-0.0000
 0729,-0.00001686,0.00000339,0.00000896,-0.00001033,-0.00001017,-0.0000
 0178,-0.00005470,0.00003390,0.00004697,0.00042543,-0.00032221,0.000078
 90,-0.00248030,0.00019504,-0.00297352,0.00010933,0.00001043,0.00005353
 ,-0.00129527,0.00092030,-0.00209510,0.00098041,0.00019253,-0.00048470,
 0.00065361,-0.00352680,0.00448262,0.00326112,-0.00680955,0.00696125,-0
 .16557243,-0.03565856,0.13946533,-0.00277952,0.00437363,0.00773900,-0.
 00118255,0.00068655,-0.00020135,0.16885237,-0.00022717,0.00001898,-0.0
 0006859,0.00002536,0.00002577,-0.00001118,0.00001938,-0.00000108,-0.00
 002869,0.00000598,0.00000579,0.00000393,0.00003399,-0.00002469,0.00000
 299,-0.00002169,-0.00001624,-0.00000396,0.00014665,0.00001848,-0.00003
 329,0.00007264,-0.00017919,0.00007370,-0.00003841,0.00000188,-0.000042
 56,0.00000566,-0.00000670,-0.00001989,0.00000281,0.00000405,0.00001124
 ,-0.00001346,-0.00001480,-0.00001183,-0.00000637,-0.00001280,-0.000024
 72,-0.00006915,0.00009559,-0.00013461,0.00033210,0.00081468,0.00194264
 ,0.00044952,-0.00027380,0.00006498,0.00099220,-0.00022769,0.00168429,-
 0.00001553,0.00051210,-0.00043529,0.00824989,0.00906482,-0.00999877,-0
 .00499117,0.00316392,-0.00310564,-0.04303332,-0.06862411,0.02868305,-0
 .00254743,0.00711267,0.01210524,-0.00038649,-0.00023039,0.00006018,0.0
 3939431,0.04821000,0.00030492,-0.00009251,0.00014752,0.00020551,-0.000
 09093,-0.00000307,-0.00006882,0.00007791,0.00014974,0.00000126,0.00000
 490,0.00001846,-0.00001734,0.00000395,-0.00000951,0.00001646,-0.000005
 74,-0.00000380,-0.00007919,-0.00007955,0.00000690,-0.00003511,0.000213
 01,0.00001023,0.00003570,-0.00000518,0.00006014,0.00000497,-0.00000353
 ,0.00001621,-0.00000811,0.00000776,-0.00000230,-0.00004045,-0.00000152
 ,-0.00001182,-0.00003787,0.00003244,0.00002774,0.00030777,-0.00019088,
 0.00005522,-0.00167293,0.00033985,-0.00564225,0.00005368,0.00022072,-0
 .00010713,-0.00121303,0.00042907,-0.00115389,0.00061322,0.00042689,-0.
 00021559,0.00908289,0.01023791,0.00045302,0.00713564,-0.00536409,0.001
 90756,0.14458394,0.02667359,-0.20874623,-0.00205645,-0.00300050,0.0028
 7924,-0.00089011,0.00029148,-0.00022360,-0.15582186,-0.03131530,0.2105
 6850,0.00008089,-0.00009934,0.00015443,0.00002383,0.00000649,-0.000018
 12,-0.00000502,-0.00000387,0.00002323,-0.00000630,0.00001809,-0.000007
 99,-0.00000049,0.00000100,0.00000094,-0.00000125,0.00000242,-0.0000010
 3,-0.00006842,0.00005128,0.00007160,-0.00001102,-0.00000510,-0.0000134
 0,-0.00000118,0.00000271,-0.00000551,-0.00001001,0.00003905,-0.0000373
 9,-0.00000355,0.00000135,-0.00000154,-0.00000219,-0.00000134,-0.000007
 62,0.00003237,-0.00000234,0.00001221,-0.00004968,0.00001987,0.00003215
 ,-0.00105439,0.00055090,-0.00098207,0.00109852,-0.00045274,-0.00139243
 ,0.00024681,0.00007303,-0.00021828,0.00010963,-0.00024418,0.00033887,0
 .00033057,-0.00040390,0.00183713,-0.00493766,-0.00321638,-0.00163042,0
 .00019753,-0.00081002,-0.00032395,-0.00028545,0.00137050,0.00146697,0.
 01158672,0.00337593,0.00942245,0.00013339,-0.00008904,0.00004493,0.169
 95477,-0.00023677,0.00000432,-0.00029097,-0.00002046,0.00001438,0.0000
 3800,0.00000663,-0.00005565,0.00003725,0.00001881,0.00001492,0.0000237
 4,-0.00001034,0.00000147,0.00000562,0.00000479,0.00001173,-0.00001171,
 -0.00006539,-0.00007478,-0.00001870,0.00002179,-0.00002312,0.00003607,
 0.00002659,-0.00000664,-0.00000868,0.00018276,-0.00003155,0.00013082,-
 0.00000400,0.00000125,0.00000251,-0.00001762,-0.00000973,0.00001453,0.
 00000412,0.00001507,-0.00000052,0.00000261,0.00009102,0.00008215,-0.00
 097626,0.00045468,-0.00043814,0.00017902,0.00157549,0.00117344,0.00010
 848,-0.00015641,-0.00006377,-0.00055384,0.00058325,0.00020750,0.000213
 71,0.00119343,-0.00146819,0.01650116,0.00896663,0.01530891,-0.00020016
 ,0.00037527,-0.00036542,0.00026706,-0.00041895,0.00186755,-0.01470934,
 -0.00621220,-0.00768983,0.00000503,-0.00006742,0.00009841,0.05254512,0
 .07181567,-0.00035816,-0.00004881,-0.00005865,-0.00018321,0.00010716,0
 .00008392,-0.00001025,-0.00016489,-0.00000411,0.00000154,0.00004636,0.
 00000140,-0.00000834,0.00000752,0.00001218,0.00000378,0.00002343,-0.00
 001394,-0.00007196,0.00000227,0.00002738,-0.00002960,-0.00001021,-0.00
 000576,-0.00001551,0.00001411,-0.00000458,0.00013074,-0.00009960,0.000
 18877,0.00000229,0.00000486,0.00001288,0.00001008,-0.00001549,0.000018
 35,0.00001225,0.00000625,0.00001922,0.00008311,0.00011100,0.00008152,0
 .00185078,0.00125801,-0.00130800,-0.00024798,0.00062476,0.00162041,0.0
 0018968,0.00029534,-0.00038245,0.00047181,0.00017603,-0.00100384,-0.00
 030050,0.00061828,0.00203777,-0.00691518,-0.00428979,-0.01072032,-0.00
 005962,-0.00072917,-0.00062343,-0.00049362,0.00181354,-0.00353041,-0.0
 1143090,-0.00371897,-0.00752057,0.00020991,0.00013743,0.00001233,0.132
 57585,0.05933167,0.19259246,0.00003587,-0.00004745,0.00001459,-0.00005
 320,0.00003844,-0.00001023,0.00000310,-0.00004190,-0.00001604,-0.00000
 159,0.00000565,-0.00000663,0.00000343,-0.00000119,0.00000471,-0.000001
 19,0.00000563,-0.00000371,0.00001770,0.00000949,0.00000245,-0.00001289
 ,-0.00001799,-0.00001009,-0.00000625,0.00000495,-0.00000051,-0.0000028
 3,0.00000413,0.00000948,0.00000649,0.00000035,0.00000756,0.00000814,-0
 .00000281,0.00000815,-0.00000784,0.00000245,0.00000260,0.00007320,-0.0
 0001470,0.00002125,0.00000528,-0.00010830,0.00036305,0.00003594,0.0001
 4352,0.00012669,0.00065137,-0.00021628,0.00026289,0.00028296,0.0002032
 1,0.00001994,-0.01455570,0.00795748,-0.00047408,-0.30222503,0.08874837
 ,-0.00325354,-0.00192210,-0.00107425,0.00161538,-0.00026378,-0.0012005
 4,-0.00049289,-0.00044505,-0.00002913,-0.00054350,0.00049841,-0.000059
 16,0.00068305,-0.00001688,0.00035480,0.00014954,0.31737705,0.00009973,
 -0.00009127,0.00001569,-0.00002347,0.00004095,-0.00004507,0.00001377,-
 0.00003592,-0.00002347,-0.00000138,0.00000914,0.00000597,0.00000298,-0
 .00000205,0.00000324,0.00000616,0.00000725,-0.00000316,0.00002612,0.00
 003804,-0.00002510,-0.00000763,-0.00005027,0.00001353,-0.00003313,0.00
 001621,-0.00000627,-0.00004878,0.00001476,-0.00002850,0.00000558,0.000
 00434,0.00000526,0.00000865,0.00000061,0.00000571,-0.00002354,0.000001
 01,-0.00000517,0.00003499,-0.00001776,-0.00002719,-0.00062442,-0.00002
 829,0.00080734,0.00025691,-0.00111932,-0.00010696,0.00118001,0.0000661
 5,-0.00002299,-0.00068027,0.00104859,0.00042187,-0.02085316,0.00965664
 ,-0.00059572,0.08886363,-0.07590492,-0.00176496,-0.00301404,-0.0024000
 1,0.00041197,0.01167836,-0.00150608,0.00428635,0.00177167,-0.00296552,
 0.00122725,0.00118564,0.00020482,0.00137636,0.00070129,-0.00126029,0.0
 0003757,-0.09409727,0.07771844,-0.00008488,0.00000186,-0.00006523,0.00
 000651,0.00000595,-0.00000371,-0.00000027,-0.00001341,0.00000547,0.000
 00125,-0.00000043,0.00000206,-0.00000385,0.00000177,0.00000112,0.00000
 225,0.00000246,-0.00000010,-0.00001799,-0.00002135,-0.00001494,0.00000
 225,-0.00000253,-0.00000663,0.00000731,0.00000097,0.00000023,0.0000332
 7,-0.00001245,0.00002198,-0.00000222,0.00000055,0.00000136,-0.00000560
 ,-0.00000332,0.00000372,0.00000045,0.00000756,-0.00000771,-0.00003534,
 0.00003365,-0.00002820,-0.00031467,0.00020976,0.00011203,-0.00008246,-
 0.00032039,0.00076964,0.00012943,0.00003927,0.00056728,-0.00110226,0.0
 0041290,0.00114797,0.00405322,-0.00040432,-0.00039263,-0.00092201,-0.0
 0097385,-0.04667620,0.00006410,-0.00158860,-0.00222365,0.02094766,-0.0
 0006356,0.00431542,-0.00018052,0.00150342,-0.00058057,-0.00022183,0.00
 148914,-0.00124429,-0.00124536,0.00207744,-0.00131057,0.00001008,-0.00
 485920,0.04098930,0.00035500,0.00026448,0.00039762,-0.00002662,-0.0000
 9716,-0.00008985,0.00001258,0.00011859,-0.00005899,-0.00004642,0.00002
 001,-0.00012417,0.00003259,-0.00000869,-0.00001220,-0.00006330,-0.0000
 3517,0.00003875,0.00010646,0.00006871,0.00026543,-0.00026214,0.0000278
 5,-0.00018106,0.00000184,-0.00000824,-0.00000597,-0.00026778,0.0001207
 3,-0.00011726,0.00000578,-0.00001415,-0.00001755,0.00000413,0.00001283
 ,-0.00001431,-0.00008068,-0.00004105,-0.00001814,0.00003136,-0.0001332
 2,0.00000148,-0.03144540,-0.01106929,0.00939677,-0.00429024,0.01215088
 ,0.02379838,-0.00098299,0.00012551,-0.00000723,-0.00012380,-0.00016336
 ,-0.00098462,0.01056201,-0.00682426,0.01924587,-0.08545879,0.00438248,
 -0.02943647,-0.00082050,0.00202924,0.00151361,0.00319337,0.00629552,0.
 00281382,-0.09853443,0.01766975,0.03977803,-0.00195082,0.00184456,-0.0
 0114930,-0.16382690,-0.04761474,-0.12488277,-0.00048419,0.01313858,-0.
 02152879,0.60016097,-0.00041922,-0.00008236,-0.00001151,-0.00004106,-0
 .00002525,0.00006658,-0.00001318,0.00000240,0.00000615,-0.00002693,-0.
 00002023,-0.00006029,0.00000770,0.00000145,-0.00000132,-0.00002292,-0.
 00001226,0.00001095,0.00007739,-0.00007919,0.00002183,-0.00004328,0.00
 005473,-0.00012514,0.00003273,-0.00000757,0.00000096,0.00000284,0.0000
 1430,0.00008027,0.00000223,-0.00000748,-0.00000059,-0.00000271,-0.0000
 0055,0.00000034,0.00000594,-0.00002604,0.00000826,-0.00005460,0.000162
 32,-0.00005388,-0.00369538,-0.02672541,0.00518366,-0.00196845,-0.00156
 249,0.00081342,-0.00019300,-0.00003309,0.00014975,0.00014211,-0.001089
 64,0.00110591,-0.00746189,-0.01140724,0.02136931,0.01753933,-0.1086498
 3,0.06801480,0.00081189,-0.00551466,-0.00239816,0.00846104,0.00063338,
 0.00334400,0.01207046,-0.10065843,-0.06236695,-0.00020899,0.00026538,-
 0.00003322,-0.04833737,-0.07295508,-0.05920027,-0.00043292,-0.00436897
 ,0.00385102,0.10671395,0.43159114,0.00012774,0.00008235,0.00003466,0.0
 0003141,-0.00006351,-0.00003267,0.00000668,0.00009225,-0.00001592,-0.0
 0000215,-0.00009084,-0.00000932,0.00001003,-0.00000063,-0.00001269,0.0
 0000979,-0.00000971,0.00000817,0.00009600,0.00004105,-0.00018324,0.000
 16044,0.00001479,-0.00001397,0.00003883,-0.00003278,0.00002541,-0.0002
 1990,0.00017674,-0.00004432,0.00000875,-0.00000761,-0.00000394,-0.0000
 0049,0.00000818,-0.00001157,-0.00014180,-0.00001789,-0.00004727,0.0001
 9689,-0.00036008,0.00000838,0.00524285,0.00629281,-0.02409665,-0.00028
 587,0.00266169,0.00366253,-0.00121519,0.00008099,-0.00042757,0.0005277
 0,0.00214433,-0.00277777,0.00947092,0.00200519,-0.00456468,-0.02949854
 ,0.05513395,-0.10508749,0.00092562,0.00198400,-0.00066613,0.00318463,0
 .00651257,-0.06938366,0.03008425,-0.05832724,-0.12366653,0.00177951,-0
 .00100837,0.00082304,-0.12327610,-0.05708069,-0.17976337,0.00145304,-0
 .00084485,0.00241903,0.00057126,-0.00788385,0.60792728,-0.00035808,-0.
 00001071,-0.00012794,-0.00012092,0.00006320,0.00007218,0.00000323,-0.0
 0008371,-0.00001214,-0.00004554,0.00002472,-0.00006789,-0.00000915,-0.
 00000280,0.00001498,-0.00001788,-0.00000110,-0.00000013,0.00005842,-0.
 00004119,0.00015801,-0.00008075,-0.00008090,-0.00019268,-0.00003413,0.
 00002438,-0.00003784,0.00004155,-0.00003830,0.00009308,0.00000952,0.00
 000026,0.00001311,0.00000936,-0.00000506,0.00001288,-0.00003455,0.0000
 0987,-0.00000159,0.00015025,-0.00002635,-0.00004424,0.00020618,0.00073
 342,0.00005963,-0.01317533,-0.02584030,-0.00316131,0.00004426,0.000024
 14,0.00019385,0.00123976,-0.00018925,-0.00022763,-0.00051507,-0.000166
 73,0.00063802,-0.00134163,0.00068166,0.00061554,-0.00020813,-0.0003424
 2,-0.00016971,0.00384875,0.00745762,-0.00067063,-0.12597115,-0.1253543
 7,-0.01983522,0.00001664,0.00006456,0.00001807,-0.00007492,0.00139958,
 0.00062356,0.00003222,0.00032516,-0.00018703,0.00573117,0.01137604,0.0
 0281140,0.12896828,0.00017904,-0.00005912,0.00007445,-0.00001597,0.000
 02155,-0.00001945,0.00001080,-0.00002114,-0.00001173,0.00001444,0.0000
 1025,0.00001664,0.00000220,-0.00000034,0.00000234,0.00000923,0.0000080
 1,-0.00000571,0.00001531,0.00002774,-0.00001772,-0.00000081,-0.0000039
 1,0.00005188,-0.00001437,0.00000481,0.00000495,-0.00000564,-0.00000355
 ,-0.00001712,0.00000093,0.00000275,0.00000015,0.00001070,0.00000199,0.
 00000177,0.00001107,0.00000063,0.00001770,0.00000080,-0.00000493,0.000
 02203,0.00003979,-0.00039993,-0.00014930,0.00470971,0.00882531,0.00102
 614,-0.00031115,0.00004352,-0.00049158,-0.00051746,0.00177910,-0.00013
 251,0.00013796,0.00000520,-0.00066506,0.00129793,-0.00134354,-0.000148
 45,0.00313127,-0.00061093,0.00107850,-0.01045017,-0.01254637,-0.001388
 03,-0.12282154,-0.24824400,-0.02996362,-0.00010143,-0.00017453,-0.0000
 4832,0.00083981,-0.00131852,-0.00010188,0.00001185,-0.00034852,0.00009
 386,-0.00576618,-0.00847710,-0.00163640,0.12983509,0.26149694,-0.00017
 805,0.00003583,-0.00008059,-0.00000709,0.00000334,0.00002478,-0.000006
 92,-0.00000676,0.00000825,-0.00000463,-0.00000006,-0.00000655,0.000003
 59,0.00000173,-0.00000196,-0.00000562,-0.00000317,0.00000070,0.0000167
 1,-0.00004557,0.00000179,0.00000190,0.00002481,-0.00001774,0.00000949,
 0.00000031,0.00001004,0.00003947,-0.00003903,0.00002737,-0.00000069,0.
 00000050,0.00000162,-0.00000688,-0.00000338,0.00000025,0.00000912,0.00
 000447,-0.00001119,0.00000387,0.00002448,-0.00001724,0.00005767,0.0003
 4069,-0.00003807,-0.00079346,-0.00143553,0.00047153,0.00023301,-0.0000
 8389,0.00044896,0.00084665,-0.00126481,0.00107508,0.00120939,0.0006660
 8,0.00046825,0.00001063,-0.00065305,-0.00125938,-0.00331519,0.00322354
 ,-0.00272261,0.01662032,0.02102070,0.00215014,-0.02041455,-0.03087483,
 -0.04970289,0.00025557,0.00028328,0.00012263,0.00187946,-0.00312826,-0
 .00213347,-0.00001262,-0.00023594,0.00039075,-0.01474391,-0.02113356,-
 0.00468251,0.01899364,0.03231919,0.05395127,-0.00014895,-0.00003663,-0
 .00000615,-0.00011160,0.00005307,0.00004475,-0.00000461,-0.00007993,-0
 .00001115,-0.00001034,0.00002555,-0.00002544,0.00000287,0.00000280,0.0
 0000535,-0.00000988,0.00000666,-0.00000227,-0.00000136,-0.00001760,0.0
 0006267,-0.00003677,0.00001113,-0.00004182,0.00000352,0.00000666,0.000
 00789,0.00006398,-0.00004970,0.00007046,0.00000397,0.00000008,0.000007
 21,0.00000640,-0.00000592,0.00000935,0.00001688,0.00000158,0.00001460,
 0.00005638,0.00005159,0.00004102,0.00039617,0.00027209,-0.00047551,0.0
 0007074,0.00074911,0.00180159,0.00016753,0.00004503,-0.00006229,0.0000
 5851,-0.00009309,0.00003207,-0.00042987,0.00118200,-0.00130736,0.01018
 949,0.00684465,-0.00545739,0.00053107,-0.00014023,-0.00003279,-0.00066
 914,-0.00014772,0.00017380,-0.00804080,-0.00398548,0.00234589,0.000114
 14,-0.00014122,-0.00000144,-0.01343973,-0.00743315,0.00869270,0.000967
 36,0.00010787,0.00067729,-0.23153227,-0.09432173,0.09790231,0.00162768
 ,-0.00025321,-0.00070089,0.24015860,0.00012212,-0.00006510,0.00005169,
 -0.00004926,0.00003490,-0.00002107,0.00000939,-0.00003964,-0.00002399,
 0.00001278,0.00000575,0.00002829,0.00000031,-0.00000134,0.00000273,0.0
 0001271,0.00001079,-0.00000652,0.00000511,0.00006636,-0.00006407,0.000
 00841,-0.00004502,0.00005454,-0.00003701,0.00001118,-0.00000889,-0.000
 01953,0.00000103,-0.00001636,0.00000631,0.00000451,0.00000480,0.000010
 62,0.00000079,0.00000691,-0.00001276,0.00000716,0.00000480,0.00004491,
 -0.00004446,0.00001858,-0.00003240,-0.00003538,0.00021498,0.00126004,-
 0.00129785,-0.00321094,-0.00035542,-0.00010454,0.00009120,-0.00008098,
 0.00039161,-0.00013895,0.00283175,-0.00160361,0.00438941,-0.02096537,-
 0.01089556,0.00710261,-0.00132707,-0.00042547,-0.00004440,0.00074979,-
 0.00093874,-0.00042118,0.02001635,0.00812708,-0.00959490,-0.00043226,0
 .00033453,-0.00020298,-0.00593321,-0.00252826,0.00376348,-0.00014644,0
 .00127226,-0.00146818,-0.09320815,-0.09102220,0.05013358,0.00016348,0.
 00132865,0.00095889,0.09734575,0.09745059,-0.00011979,-0.00004136,-0.0
 0002693,-0.00005031,0.00003151,0.00003606,-0.00000734,-0.00005390,0.00
 000415,0.00001092,0.00001067,0.00002774,-0.00000632,0.00000431,0.00000
 134,0.00001169,0.00001203,-0.00000851,-0.00005199,-0.00000628,-0.00003
 464,0.00003029,0.00000476,0.00005589,-0.00000384,0.00000568,0.00000425
 ,0.00005482,-0.00004953,0.00003809,-0.00000238,0.00000479,0.00000175,-
 0.00000200,-0.00000269,0.00000468,0.00003626,0.00001004,0.00001420,-0.
 00002438,0.00009333,0.00004931,0.00045200,0.00013680,-0.00070996,0.000
 47517,-0.00014486,-0.00230460,0.00015235,0.00006248,-0.00012047,0.0001
 0414,0.00033576,-0.00038212,-0.00210131,-0.00027589,-0.00137979,0.0128
 6461,0.00779137,-0.00551364,0.00000661,-0.00092327,-0.00022053,-0.0004
 1149,-0.00063030,-0.00230068,0.01455600,0.00609343,-0.00754518,0.00045
 081,-0.00029939,0.00010500,-0.01869901,-0.00987075,0.01167485,0.000069
 39,-0.00002354,0.00180709,0.09555155,0.04924156,-0.09941720,0.00041800
 ,0.00008728,0.00152079,-0.10376445,-0.05160406,0.10461904\\0.00008496,
 -0.00040705,-0.00010019,-0.00007011,0.00007748,-0.00009798,0.00006011,
 -0.00002745,0.00000924,-0.00005925,0.00005647,-0.00014802,-0.00000341,
 -0.00001728,-0.00000013,0.00003931,0.00003289,0.00005980,-0.00006146,0
 .00001098,0.00014460,0.00012418,-0.00001249,0.00007988,-0.00004562,-0.
 00000363,0.00005144,-0.00005112,0.00001486,-0.00001161,-0.00000712,-0.
 00003398,-0.00005373,-0.00000775,0.00003458,-0.00001462,-0.00001747,0.
 00010974,-0.00005783,0.00014508,0.00015767,0.00012863,0.00000391,-0.00
 001739,-0.00017781,0.00029800,0.00004556,0.00006544,0.00002478,-0.0000
 1913,-0.00002093,0.00001575,-0.00004526,0.00003394,-0.00014021,-0.0000
 0018,-0.00007552,-0.00003673,-0.00002739,-0.00003198,0.00008208,0.0001
 1821,0.00004794,-0.00002868,0.00007612,-0.00007820,-0.00044593,-0.0001
 3562,-0.00001871,0.00004402,-0.00002918,-0.00001647,0.00002178,-0.0000
 0710,0.00000533,-0.00000025,0.00003198,-0.00000851,0.00004194,0.000068
 43,0.00022910,-0.00000691,-0.00003548,0.00004282,-0.00000391,-0.000016
 35,0.00001409\\\@
 The archive entry for this job was punched.


 THE MOST INCOMPREHENSIBLE THING ABOUT THE WORLD
 IS THAT IT IS COMPREHENSIBLE. -- A. EINSTEIN
 Job cpu time:       0 days  2 hours 13 minutes 27.8 seconds.
 Elapsed time:       0 days  0 hours  3 minutes 33.2 seconds.
 File lengths (MBytes):  RWF=    454 Int=      0 D2E=      0 Chk=     15 Scr=      1
 Normal termination of Gaussian 16 at Mon Mar 30 23:43:43 2026.
