 Entering Gaussian System, Link 0=g16
 Input=to-10-step-1-TSR.gau
 Output=to-10-step-1-TSR.log
 Initial command:
 /apps/gaussian/g16c01/g16/l1.exe "/jobfs/165099611.gadi-pbs/Gau-3085990.inp" -scrdir="/jobfs/165099611.gadi-pbs/"
 Default is to use a total of  24 processors:
                               24 via shared-memory
                                1 via Linda
 Entering Link 1 = /apps/gaussian/g16c01/g16/l1.exe PID=   3085992.
  
 Copyright (c) 1988-2019, Gaussian, Inc.  All Rights Reserved.
  
 This is part of the Gaussian(R) 16 program.  It is based on
 the Gaussian(R) 09 system (copyright 2009, Gaussian, Inc.),
 the Gaussian(R) 03 system (copyright 2003, Gaussian, Inc.),
 the Gaussian(R) 98 system (copyright 1998, Gaussian, Inc.),
 the Gaussian(R) 94 system (copyright 1995, Gaussian, Inc.),
 the Gaussian 92(TM) system (copyright 1992, Gaussian, Inc.),
 the Gaussian 90(TM) system (copyright 1990, Gaussian, Inc.),
 the Gaussian 88(TM) system (copyright 1988, Gaussian, Inc.),
 the Gaussian 86(TM) system (copyright 1986, Carnegie Mellon
 University), and the Gaussian 82(TM) system (copyright 1983,
 Carnegie Mellon University). Gaussian is a federally registered
 trademark of Gaussian, Inc.
  
 This software contains proprietary and confidential information,
 including trade secrets, belonging to Gaussian, Inc.
  
 This software is provided under written license and may be
 used, copied, transmitted, or stored only in accord with that
 written license.
  
 The following legend is applicable only to US Government
 contracts under FAR:
  
                    RESTRICTED RIGHTS LEGEND
  
 Use, reproduction and disclosure by the US Government is
 subject to restrictions as set forth in subparagraphs (a)
 and (c) of the Commercial Computer Software - Restricted
 Rights clause in FAR 52.227-19.
  
 Gaussian, Inc.
 340 Quinnipiac St., Bldg. 40, Wallingford CT 06492
  
  
 ---------------------------------------------------------------
 Warning -- This program may not be used in any manner that
 competes with the business of Gaussian, Inc. or will provide
 assistance to any competitor of Gaussian, Inc.  The licensee
 of this program is prohibited from giving any competitor of
 Gaussian, Inc. access to this program.  By using this program,
 the user acknowledges that Gaussian, Inc. is engaged in the
 business of creating and licensing software in the field of
 computational chemistry and represents and warrants to the
 licensee that it is not a competitor of Gaussian, Inc. and that
 it will not use this program in any manner prohibited above.
 ---------------------------------------------------------------
  

 Cite this work as:
 Gaussian 16, Revision C.01,
 M. J. Frisch, G. W. Trucks, H. B. Schlegel, G. E. Scuseria, 
 M. A. Robb, J. R. Cheeseman, G. Scalmani, V. Barone, 
 G. A. Petersson, H. Nakatsuji, X. Li, M. Caricato, A. V. Marenich, 
 J. Bloino, B. G. Janesko, R. Gomperts, B. Mennucci, H. P. Hratchian, 
 J. V. Ortiz, A. F. Izmaylov, J. L. Sonnenberg, D. Williams-Young, 
 F. Ding, F. Lipparini, F. Egidi, J. Goings, B. Peng, A. Petrone, 
 T. Henderson, D. Ranasinghe, V. G. Zakrzewski, J. Gao, N. Rega, 
 G. Zheng, W. Liang, M. Hada, M. Ehara, K. Toyota, R. Fukuda, 
 J. Hasegawa, M. Ishida, T. Nakajima, Y. Honda, O. Kitao, H. Nakai, 
 T. Vreven, K. Throssell, J. A. Montgomery, Jr., J. E. Peralta, 
 F. Ogliaro, M. J. Bearpark, J. J. Heyd, E. N. Brothers, K. N. Kudin, 
 V. N. Staroverov, T. A. Keith, R. Kobayashi, J. Normand, 
 K. Raghavachari, A. P. Rendell, J. C. Burant, S. S. Iyengar, 
 J. Tomasi, M. Cossi, J. M. Millam, M. Klene, C. Adamo, R. Cammi, 
 J. W. Ochterski, R. L. Martin, K. Morokuma, O. Farkas, 
 J. B. Foresman, and D. J. Fox, Gaussian, Inc., Wallingford CT, 2019.
 
 ******************************************
 Gaussian 16:  ES64L-G16RevC.01  3-Jul-2019
                 9-Apr-2026 
 ******************************************
 %chk=to-10-step-1-TSR.chk
 Default route: Maxdisk=0MB
 ----------------------------------------------------------------------
 # opt(maxcycles=300,MaxStep=5) freq scf(maxcycle=300,xqc) UWB97XD/DEF2
 SVPP scrf(smd,solvent=Benzene) Temperature=253.15
 ----------------------------------------------------------------------
 1/6=300,8=5,18=20,19=15,26=3,38=1,112=253150/1,3;
 2/9=110,12=2,17=6,18=5,40=1/2;
 3/5=43,7=202,11=2,25=1,30=1,70=32201,71=1,72=12,74=-58,116=2/1,2,3;
 4//1;
 5/5=2,7=300,8=3,13=1,38=5,53=12/2,8;
 6/7=2,8=2,9=2,10=2,28=1/1;
 7//1,2,3,16;
 1/6=300,8=5,18=20,19=15,26=3/3(2);
 2/9=110/2;
 99//99;
 2/9=110/2;
 3/5=43,7=202,11=2,25=1,30=1,70=32205,71=1,72=12,74=-58,116=2/1,2,3;
 4/5=5,16=3,69=1/1;
 5/5=2,7=300,8=3,13=1,38=5,53=12/2,8;
 7//1,2,3,16;
 1/6=300,8=5,18=20,19=15,26=3/3(-5);
 2/9=110/2;
 6/7=2,8=2,9=2,10=2,19=2,28=1/1;
 99/9=1/99;
 ---------------------------------------------------------
 Title: Geometrical optimization and frequency calculation
 ---------------------------------------------------------
 Symbolic Z-matrix:
 Charge =  1 Multiplicity = 1
 C                    -2.87982   1.37477   0.69847 
 C                    -1.74982   0.55643  -1.31068 
 C                    -2.19306  -0.72775  -1.11502 
 C                    -3.23266  -1.00781  -0.05293 
 H                    -3.17484  -2.05827   0.28642 
 H                    -4.21435  -0.90797  -0.5651 
 C                    -3.15407  -0.04629   1.1343 
 H                    -2.33644  -0.36454   1.82504 
 H                    -4.07292  -0.09842   1.72874 
 H                    -3.19721   2.19974   1.34898 
 H                    -1.96021  -1.50816  -1.84953 
 H                    -1.15107   0.79858  -2.21253 
 H                    -1.96703   2.67912  -0.72294 
 C                    -2.20268   1.64457  -0.43294 
 Cu                   -0.24347  -0.32273  -0.09971 
 H                     4.3803    0.37065  -1.75393 
 H                     0.88421  -0.58392   2.21444 
 H                     2.03822   0.40815  -1.11563 
 C                     1.41581  -0.46144   1.2611 
 C                     2.75323   0.24003   0.90079 
 C                     1.5528   -1.30655   0.152 
 C                     2.61439  -0.34735  -0.48821 
 C                     4.09957   0.09978  -0.71763 
 H                     1.19528  -2.33546  -0.06483 
 H                     3.26402   2.15892  -0.24621 
 H                     3.44822  -0.42461   1.47418 
 C                     3.74702   1.30447   0.29424 
 H                     4.86536  -0.58778  -0.27019 
 H                     4.55485   1.686     0.95377 
 

 GradGradGradGradGradGradGradGradGradGradGradGradGradGradGradGradGradGrad
 Berny optimization.
 Initialization pass.
                           ----------------------------
                           !    Initial Parameters    !
                           ! (Angstroms and Degrees)  !
 --------------------------                            --------------------------
 ! Name  Definition              Value          Derivative Info.                !
 --------------------------------------------------------------------------------
 ! R1    R(1,7)                  1.5115         estimate D2E/DX2                !
 ! R2    R(1,10)                 1.0975         estimate D2E/DX2                !
 ! R3    R(1,14)                 1.3459         estimate D2E/DX2                !
 ! R4    R(2,3)                  1.3725         estimate D2E/DX2                !
 ! R5    R(2,12)                 1.1093         estimate D2E/DX2                !
 ! R6    R(2,14)                 1.4695         estimate D2E/DX2                !
 ! R7    R(2,15)                 2.1233         estimate D2E/DX2                !
 ! R8    R(3,4)                  1.5124         estimate D2E/DX2                !
 ! R9    R(3,11)                 1.0967         estimate D2E/DX2                !
 ! R10   R(3,15)                 2.2351         estimate D2E/DX2                !
 ! R11   R(4,5)                  1.1054         estimate D2E/DX2                !
 ! R12   R(4,6)                  1.1118         estimate D2E/DX2                !
 ! R13   R(4,7)                  1.5298         estimate D2E/DX2                !
 ! R14   R(7,8)                  1.1167         estimate D2E/DX2                !
 ! R15   R(7,9)                  1.0956         estimate D2E/DX2                !
 ! R16   R(13,14)                1.1            estimate D2E/DX2                !
 ! R17   R(15,19)                2.1504         estimate D2E/DX2                !
 ! R18   R(15,21)                2.0635         estimate D2E/DX2                !
 ! R19   R(16,23)                1.1073         estimate D2E/DX2                !
 ! R20   R(17,19)                1.0984         estimate D2E/DX2                !
 ! R21   R(18,22)                1.1386         estimate D2E/DX2                !
 ! R22   R(19,20)                1.5526         estimate D2E/DX2                !
 ! R23   R(19,21)                1.4011         estimate D2E/DX2                !
 ! R24   R(20,22)                1.5145         estimate D2E/DX2                !
 ! R25   R(20,26)                1.1196         estimate D2E/DX2                !
 ! R26   R(20,27)                1.5775         estimate D2E/DX2                !
 ! R27   R(21,22)                1.5675         estimate D2E/DX2                !
 ! R28   R(21,24)                1.1106         estimate D2E/DX2                !
 ! R29   R(22,23)                1.5679         estimate D2E/DX2                !
 ! R30   R(23,27)                1.6123         estimate D2E/DX2                !
 ! R31   R(23,28)                1.1222         estimate D2E/DX2                !
 ! R32   R(25,27)                1.1205         estimate D2E/DX2                !
 ! R33   R(27,29)                1.1105         estimate D2E/DX2                !
 ! A1    A(7,1,10)             118.9039         estimate D2E/DX2                !
 ! A2    A(7,1,14)             121.4774         estimate D2E/DX2                !
 ! A3    A(10,1,14)            119.5432         estimate D2E/DX2                !
 ! A4    A(3,2,12)             119.6337         estimate D2E/DX2                !
 ! A5    A(3,2,14)             120.5395         estimate D2E/DX2                !
 ! A6    A(12,2,14)            119.3603         estimate D2E/DX2                !
 ! A7    A(12,2,15)             99.8536         estimate D2E/DX2                !
 ! A8    A(14,2,15)            100.6352         estimate D2E/DX2                !
 ! A9    A(2,3,4)              119.6933         estimate D2E/DX2                !
 ! A10   A(2,3,11)             120.116          estimate D2E/DX2                !
 ! A11   A(4,3,11)             118.9802         estimate D2E/DX2                !
 ! A12   A(4,3,15)             108.3084         estimate D2E/DX2                !
 ! A13   A(11,3,15)            104.3586         estimate D2E/DX2                !
 ! A14   A(3,4,5)              110.8308         estimate D2E/DX2                !
 ! A15   A(3,4,6)              105.4752         estimate D2E/DX2                !
 ! A16   A(3,4,7)              113.1607         estimate D2E/DX2                !
 ! A17   A(5,4,6)              105.84           estimate D2E/DX2                !
 ! A18   A(5,4,7)              110.8763         estimate D2E/DX2                !
 ! A19   A(6,4,7)              110.2701         estimate D2E/DX2                !
 ! A20   A(1,7,4)              112.1156         estimate D2E/DX2                !
 ! A21   A(1,7,8)              108.2679         estimate D2E/DX2                !
 ! A22   A(1,7,9)              110.6927         estimate D2E/DX2                !
 ! A23   A(4,7,8)              109.7882         estimate D2E/DX2                !
 ! A24   A(4,7,9)              110.3701         estimate D2E/DX2                !
 ! A25   A(8,7,9)              105.3613         estimate D2E/DX2                !
 ! A26   A(1,14,2)             120.5782         estimate D2E/DX2                !
 ! A27   A(1,14,13)            121.1959         estimate D2E/DX2                !
 ! A28   A(2,14,13)            118.2246         estimate D2E/DX2                !
 ! A29   A(2,15,19)            159.2321         estimate D2E/DX2                !
 ! A30   A(2,15,21)            152.1967         estimate D2E/DX2                !
 ! A31   A(3,15,19)            161.5874         estimate D2E/DX2                !
 ! A32   A(3,15,21)            136.746          estimate D2E/DX2                !
 ! A33   A(15,19,17)           100.5444         estimate D2E/DX2                !
 ! A34   A(15,19,20)           119.2531         estimate D2E/DX2                !
 ! A35   A(17,19,20)           131.9669         estimate D2E/DX2                !
 ! A36   A(17,19,21)           131.846          estimate D2E/DX2                !
 ! A37   A(20,19,21)            90.2629         estimate D2E/DX2                !
 ! A38   A(19,20,22)            87.6299         estimate D2E/DX2                !
 ! A39   A(19,20,26)            98.4913         estimate D2E/DX2                !
 ! A40   A(19,20,27)           159.5125         estimate D2E/DX2                !
 ! A41   A(22,20,26)           107.2397         estimate D2E/DX2                !
 ! A42   A(22,20,27)            88.0975         estimate D2E/DX2                !
 ! A43   A(26,20,27)           101.9124         estimate D2E/DX2                !
 ! A44   A(15,21,22)           104.3586         estimate D2E/DX2                !
 ! A45   A(15,21,24)            97.9125         estimate D2E/DX2                !
 ! A46   A(19,21,22)            91.1708         estimate D2E/DX2                !
 ! A47   A(19,21,24)           132.9891         estimate D2E/DX2                !
 ! A48   A(22,21,24)           134.8458         estimate D2E/DX2                !
 ! A49   A(18,22,20)           107.1236         estimate D2E/DX2                !
 ! A50   A(18,22,21)           106.7617         estimate D2E/DX2                !
 ! A51   A(18,22,23)           102.0921         estimate D2E/DX2                !
 ! A52   A(20,22,21)            85.6886         estimate D2E/DX2                !
 ! A53   A(20,22,23)            86.374          estimate D2E/DX2                !
 ! A54   A(21,22,23)           151.1417         estimate D2E/DX2                !
 ! A55   A(16,23,22)           116.542          estimate D2E/DX2                !
 ! A56   A(16,23,27)           117.3887         estimate D2E/DX2                !
 ! A57   A(16,23,28)           110.4875         estimate D2E/DX2                !
 ! A58   A(22,23,27)            85.0739         estimate D2E/DX2                !
 ! A59   A(22,23,28)           114.414          estimate D2E/DX2                !
 ! A60   A(27,23,28)           110.9027         estimate D2E/DX2                !
 ! A61   A(20,27,23)            82.813          estimate D2E/DX2                !
 ! A62   A(20,27,25)           115.3697         estimate D2E/DX2                !
 ! A63   A(20,27,29)           117.5            estimate D2E/DX2                !
 ! A64   A(23,27,25)           111.1831         estimate D2E/DX2                !
 ! A65   A(23,27,29)           118.0599         estimate D2E/DX2                !
 ! A66   A(25,27,29)           109.758          estimate D2E/DX2                !
 ! D1    D(10,1,7,4)           155.1024         estimate D2E/DX2                !
 ! D2    D(10,1,7,8)           -83.6345         estimate D2E/DX2                !
 ! D3    D(10,1,7,9)            31.3825         estimate D2E/DX2                !
 ! D4    D(14,1,7,4)           -28.0734         estimate D2E/DX2                !
 ! D5    D(14,1,7,8)            93.1897         estimate D2E/DX2                !
 ! D6    D(14,1,7,9)          -151.7933         estimate D2E/DX2                !
 ! D7    D(7,1,14,2)             2.3063         estimate D2E/DX2                !
 ! D8    D(7,1,14,13)         -177.2658         estimate D2E/DX2                !
 ! D9    D(10,1,14,2)          179.1106         estimate D2E/DX2                !
 ! D10   D(10,1,14,13)          -0.4614         estimate D2E/DX2                !
 ! D11   D(12,2,3,4)          -167.6134         estimate D2E/DX2                !
 ! D12   D(12,2,3,11)           -0.3092         estimate D2E/DX2                !
 ! D13   D(14,2,3,4)             4.5013         estimate D2E/DX2                !
 ! D14   D(14,2,3,11)          171.8055         estimate D2E/DX2                !
 ! D15   D(3,2,14,1)            10.8022         estimate D2E/DX2                !
 ! D16   D(3,2,14,13)         -169.6132         estimate D2E/DX2                !
 ! D17   D(12,2,14,1)         -177.0617         estimate D2E/DX2                !
 ! D18   D(12,2,14,13)           2.5229         estimate D2E/DX2                !
 ! D19   D(15,2,14,1)          -69.2782         estimate D2E/DX2                !
 ! D20   D(15,2,14,13)         110.3064         estimate D2E/DX2                !
 ! D21   D(12,2,15,19)          82.1128         estimate D2E/DX2                !
 ! D22   D(12,2,15,21)         -24.5526         estimate D2E/DX2                !
 ! D23   D(14,2,15,19)         -40.4997         estimate D2E/DX2                !
 ! D24   D(14,2,15,21)        -147.1651         estimate D2E/DX2                !
 ! D25   D(2,3,4,5)           -155.6733         estimate D2E/DX2                !
 ! D26   D(2,3,4,6)             90.2245         estimate D2E/DX2                !
 ! D27   D(2,3,4,7)            -30.4011         estimate D2E/DX2                !
 ! D28   D(11,3,4,5)            36.8784         estimate D2E/DX2                !
 ! D29   D(11,3,4,6)           -77.2239         estimate D2E/DX2                !
 ! D30   D(11,3,4,7)           162.1505         estimate D2E/DX2                !
 ! D31   D(15,3,4,5)           -81.9287         estimate D2E/DX2                !
 ! D32   D(15,3,4,6)           163.9691         estimate D2E/DX2                !
 ! D33   D(15,3,4,7)            43.3435         estimate D2E/DX2                !
 ! D34   D(4,3,15,19)           41.6701         estimate D2E/DX2                !
 ! D35   D(4,3,15,21)          107.5023         estimate D2E/DX2                !
 ! D36   D(11,3,15,19)         -86.0277         estimate D2E/DX2                !
 ! D37   D(11,3,15,21)         -20.1956         estimate D2E/DX2                !
 ! D38   D(3,4,7,1)             40.3215         estimate D2E/DX2                !
 ! D39   D(3,4,7,8)            -80.0628         estimate D2E/DX2                !
 ! D40   D(3,4,7,9)            164.2218         estimate D2E/DX2                !
 ! D41   D(5,4,7,1)            165.5691         estimate D2E/DX2                !
 ! D42   D(5,4,7,8)             45.1848         estimate D2E/DX2                !
 ! D43   D(5,4,7,9)            -70.5306         estimate D2E/DX2                !
 ! D44   D(6,4,7,1)            -77.5415         estimate D2E/DX2                !
 ! D45   D(6,4,7,8)            162.0742         estimate D2E/DX2                !
 ! D46   D(6,4,7,9)             46.3588         estimate D2E/DX2                !
 ! D47   D(2,15,19,17)          94.3956         estimate D2E/DX2                !
 ! D48   D(2,15,19,20)         -57.7171         estimate D2E/DX2                !
 ! D49   D(3,15,19,17)         -44.4378         estimate D2E/DX2                !
 ! D50   D(3,15,19,20)         163.4495         estimate D2E/DX2                !
 ! D51   D(2,15,21,22)          60.1075         estimate D2E/DX2                !
 ! D52   D(2,15,21,24)         -80.2927         estimate D2E/DX2                !
 ! D53   D(3,15,21,22)         120.3567         estimate D2E/DX2                !
 ! D54   D(3,15,21,24)         -20.0435         estimate D2E/DX2                !
 ! D55   D(15,19,20,22)        -45.9682         estimate D2E/DX2                !
 ! D56   D(15,19,20,26)       -153.0497         estimate D2E/DX2                !
 ! D57   D(15,19,20,27)         32.1608         estimate D2E/DX2                !
 ! D58   D(17,19,20,22)        172.2347         estimate D2E/DX2                !
 ! D59   D(17,19,20,26)         65.1532         estimate D2E/DX2                !
 ! D60   D(17,19,20,27)       -109.6363         estimate D2E/DX2                !
 ! D61   D(21,19,20,22)         17.8945         estimate D2E/DX2                !
 ! D62   D(21,19,20,26)        -89.1871         estimate D2E/DX2                !
 ! D63   D(21,19,20,27)         96.0234         estimate D2E/DX2                !
 ! D64   D(17,19,21,22)       -171.6511         estimate D2E/DX2                !
 ! D65   D(17,19,21,24)         -2.1298         estimate D2E/DX2                !
 ! D66   D(20,19,21,22)        -17.2588         estimate D2E/DX2                !
 ! D67   D(20,19,21,24)        152.2625         estimate D2E/DX2                !
 ! D68   D(19,20,22,18)         90.2365         estimate D2E/DX2                !
 ! D69   D(19,20,22,21)        -15.9877         estimate D2E/DX2                !
 ! D70   D(19,20,22,23)       -168.2197         estimate D2E/DX2                !
 ! D71   D(26,20,22,18)       -171.606          estimate D2E/DX2                !
 ! D72   D(26,20,22,21)         82.1698         estimate D2E/DX2                !
 ! D73   D(26,20,22,23)        -70.0622         estimate D2E/DX2                !
 ! D74   D(27,20,22,18)        -69.7216         estimate D2E/DX2                !
 ! D75   D(27,20,22,21)       -175.9459         estimate D2E/DX2                !
 ! D76   D(27,20,22,23)         31.8221         estimate D2E/DX2                !
 ! D77   D(19,20,27,23)       -109.0971         estimate D2E/DX2                !
 ! D78   D(19,20,27,25)          0.9803         estimate D2E/DX2                !
 ! D79   D(19,20,27,29)        132.9419         estimate D2E/DX2                !
 ! D80   D(22,20,27,23)        -31.0508         estimate D2E/DX2                !
 ! D81   D(22,20,27,25)         79.0266         estimate D2E/DX2                !
 ! D82   D(22,20,27,29)       -149.0118         estimate D2E/DX2                !
 ! D83   D(26,20,27,23)         76.1699         estimate D2E/DX2                !
 ! D84   D(26,20,27,25)       -173.7528         estimate D2E/DX2                !
 ! D85   D(26,20,27,29)        -41.7912         estimate D2E/DX2                !
 ! D86   D(15,21,22,18)        -15.0916         estimate D2E/DX2                !
 ! D87   D(15,21,22,20)         91.507          estimate D2E/DX2                !
 ! D88   D(15,21,22,23)        165.9491         estimate D2E/DX2                !
 ! D89   D(19,21,22,18)        -88.8394         estimate D2E/DX2                !
 ! D90   D(19,21,22,20)         17.7592         estimate D2E/DX2                !
 ! D91   D(19,21,22,23)         92.2013         estimate D2E/DX2                !
 ! D92   D(24,21,22,18)        101.9755         estimate D2E/DX2                !
 ! D93   D(24,21,22,20)       -151.426          estimate D2E/DX2                !
 ! D94   D(24,21,22,23)        -76.9839         estimate D2E/DX2                !
 ! D95   D(18,22,23,16)        -42.6551         estimate D2E/DX2                !
 ! D96   D(18,22,23,27)         75.579          estimate D2E/DX2                !
 ! D97   D(18,22,23,28)       -173.6798         estimate D2E/DX2                !
 ! D98   D(20,22,23,16)       -149.4019         estimate D2E/DX2                !
 ! D99   D(20,22,23,27)        -31.1678         estimate D2E/DX2                !
 ! D100  D(20,22,23,28)         79.5734         estimate D2E/DX2                !
 ! D101  D(21,22,23,16)        136.3258         estimate D2E/DX2                !
 ! D102  D(21,22,23,27)       -105.4401         estimate D2E/DX2                !
 ! D103  D(21,22,23,28)          5.3011         estimate D2E/DX2                !
 ! D104  D(16,23,27,20)        147.4045         estimate D2E/DX2                !
 ! D105  D(16,23,27,25)         32.9307         estimate D2E/DX2                !
 ! D106  D(16,23,27,29)        -95.1968         estimate D2E/DX2                !
 ! D107  D(22,23,27,20)         29.9865         estimate D2E/DX2                !
 ! D108  D(22,23,27,25)        -84.4873         estimate D2E/DX2                !
 ! D109  D(22,23,27,29)        147.3852         estimate D2E/DX2                !
 ! D110  D(28,23,27,20)        -84.2918         estimate D2E/DX2                !
 ! D111  D(28,23,27,25)        161.2344         estimate D2E/DX2                !
 ! D112  D(28,23,27,29)         33.107          estimate D2E/DX2                !
 --------------------------------------------------------------------------------
 Trust Radius=5.00D-02 FncErr=1.00D-07 GrdErr=1.00D-06 EigMax=2.50D+02 EigMin=1.00D-04
 Number of steps in this run=    174 maximum allowed number of steps=    174.
 GradGradGradGradGradGradGradGradGradGradGradGradGradGradGradGradGradGrad

                          Input orientation:                          
 ---------------------------------------------------------------------
 Center     Atomic      Atomic             Coordinates (Angstroms)
 Number     Number       Type             X           Y           Z
 ---------------------------------------------------------------------
      1          6           0       -2.879819    1.374766    0.698468
      2          6           0       -1.749824    0.556427   -1.310684
      3          6           0       -2.193056   -0.727749   -1.115023
      4          6           0       -3.232657   -1.007815   -0.052930
      5          1           0       -3.174836   -2.058274    0.286421
      6          1           0       -4.214346   -0.907973   -0.565103
      7          6           0       -3.154070   -0.046288    1.134302
      8          1           0       -2.336436   -0.364538    1.825040
      9          1           0       -4.072916   -0.098418    1.728738
     10          1           0       -3.197205    2.199743    1.348976
     11          1           0       -1.960213   -1.508161   -1.849529
     12          1           0       -1.151068    0.798579   -2.212535
     13          1           0       -1.967025    2.679122   -0.722944
     14          6           0       -2.202676    1.644568   -0.432935
     15         29           0       -0.243472   -0.322729   -0.099710
     16          1           0        4.380303    0.370646   -1.753930
     17          1           0        0.884211   -0.583916    2.214441
     18          1           0        2.038222    0.408151   -1.115630
     19          6           0        1.415808   -0.461444    1.261102
     20          6           0        2.753226    0.240030    0.900794
     21          6           0        1.552801   -1.306545    0.151996
     22          6           0        2.614393   -0.347348   -0.488214
     23          6           0        4.099565    0.099783   -0.717625
     24          1           0        1.195280   -2.335460   -0.064832
     25          1           0        3.264024    2.158924   -0.246206
     26          1           0        3.448224   -0.424609    1.474181
     27          6           0        3.747020    1.304466    0.294235
     28          1           0        4.865362   -0.587784   -0.270190
     29          1           0        4.554854    1.685997    0.953772
 ---------------------------------------------------------------------
                    Distance matrix (angstroms):
                    1          2          3          4          5
     1  C    0.000000
     2  C    2.446070   0.000000
     3  C    2.860238   1.372533   0.000000
     4  C    2.523051   2.495514   1.512365   0.000000
     5  H    3.470242   3.379063   2.167541   1.105426   0.000000
     6  H    2.930609   2.962132   2.102500   1.111757   1.768860
     7  C    1.511476   2.883250   2.539173   1.529781   2.183442
     8  H    2.142337   3.320400   2.965881   2.178024   2.437007
     9  H    2.157593   3.881194   3.466541   2.169650   2.593812
    10  H    1.097489   3.445169   3.955985   3.500718   4.388648
    11  H    3.955911   2.144094   1.096703   2.257704   2.517979
    12  H    3.434314   1.109271   2.149407   3.501423   4.301398
    13  H    2.134233   2.213244   3.436799   3.955281   4.992048
    14  C    1.345878   1.469547   2.468446   2.870610   3.895331
    15  Cu   3.235568   2.123316   2.235124   3.067044   3.428427
    16  H    7.728641   6.148938   6.695052   7.921535   8.194072
    17  H    4.505833   4.545880   4.536032   4.719032   4.729361
    18  H    5.330331   3.795962   4.381094   5.560257   5.935063
    19  C    4.705384   4.203733   4.329063   4.861422   4.957205
    20  C    5.749762   5.026749   5.428243   6.188498   6.387611
    21  C    5.209240   4.064164   3.996472   4.799150   4.788916
    22  C    5.878797   4.532070   4.863040   5.900312   6.086255
    23  C    7.234826   5.897084   6.359231   7.445137   7.653903
    24  H    5.563707   4.311473   3.894670   4.622706   4.392963
    25  H    6.265311   5.370268   6.234376   7.229969   7.715398
    26  H    6.624470   5.978094   6.214492   6.877963   6.924201
    27  C    6.639529   5.775000   6.434315   7.360914   7.695464
    28  H    8.048461   6.793566   7.110176   8.111815   8.192493
    29  H    7.445563   6.793574   7.459247   8.301530   8.614698
                    6          7          8          9         10
     6  H    0.000000
     7  C    2.180519   0.000000
     8  H    3.087823   1.116659   0.000000
     9  H    2.436614   1.095605   1.759391   0.000000
    10  H    3.788954   2.256679   2.746470   2.488500   0.000000
    11  H    2.662910   3.530668   3.866765   4.388039   5.050657
    12  H    3.874277   3.990882   4.365770   4.987528   4.339850
    13  H    4.235873   3.505182   3.986547   4.261484   2.456827
    14  C    3.252653   2.494068   3.025368   3.347929   2.114832
    15  Cu   4.040661   3.173450   2.843749   4.249492   4.145612
    16  H    8.770186   8.079758   7.646182   9.154557   8.390009
    17  H    5.816026   4.214672   3.251511   5.004470   5.015550
    18  H    6.413257   5.677024   5.327497   6.759663   6.057539
    19  C    5.935743   4.590449   3.795623   5.520558   5.326305
    20  C    7.212061   5.918839   5.208108   6.884494   6.280842
    21  C    5.825210   4.970695   4.337351   5.966102   6.024066
    22  C    6.852145   5.999863   5.464627   7.049606   6.605877
    23  C    8.376154   7.487736   6.935622   8.533078   7.869150
    24  H    5.617121   5.059158   4.464210   5.997928   6.469996
    25  H    8.089102   6.925366   6.482521   7.926329   6.655355
    26  H    7.944010   6.621853   5.795602   7.532513   7.145952
    27  C    8.307629   7.082040   6.491331   8.073245   7.080696
    28  H    9.090137   8.159479   7.503714   9.172132   8.683144
    29  H    9.270088   7.903222   7.242491   8.844384   7.779109
                   11         12         13         14         15
    11  H    0.000000
    12  H    2.471343   0.000000
    13  H    4.336194   2.533991   0.000000
    14  C    3.464856   2.233507   1.099972   0.000000
    15  Cu   2.722924   2.558338   3.517125   2.796386   0.000000
    16  H    6.613713   5.566822   6.832318   6.833997   4.959487
    17  H    5.045872   5.064758   5.234997   4.637199   2.587505
    18  H    4.494257   3.395174   4.620986   4.469901   2.602385
    19  C    4.708414   4.499185   5.024256   4.516467   2.150410
    20  C    5.730354   5.024769   5.555760   5.320951   3.209035
    21  C    4.048212   4.163347   5.388899   4.811946   2.063455
    22  C    4.911994   4.297107   5.495817   5.212959   2.884256
    23  C    6.370840   5.503837   6.592157   6.495048   4.407075
    24  H    3.718428   4.465443   5.964840   5.246163   2.474330
    25  H    6.581095   5.020959   5.278424   5.494018   4.299138
    26  H    6.439901   6.020096   6.617056   6.312785   4.014490
    27  C    6.714097   5.525494   5.964448   6.003610   4.327468
    28  H    7.066108   6.472413   7.586776   7.413976   5.118545
    29  H    7.778640   6.585633   6.806804   6.898470   5.307423
                   16         17         18         19         20
    16  H    0.000000
    17  H    5.374181   0.000000
    18  H    2.427793   3.661326   0.000000
    19  C    4.309411   1.098385   2.606233   0.000000
    20  C    3.116408   2.428533   2.146034   1.552603   0.000000
    21  C    3.800038   2.285363   2.186937   1.401099   2.096095
    22  C    2.288229   3.217738   1.138597   2.123613   1.514474
    23  C    1.107298   4.404879   2.121941   3.381255   2.109876
    24  H    4.507819   2.891324   3.056490   2.306224   3.161136
    25  H    2.591766   4.386509   2.307313   3.543192   2.293181
    26  H    3.452811   2.673486   3.064101   2.043887   1.119616
    27  C    2.338386   3.930503   2.389789   3.080230   1.577518
    28  H    1.831763   4.692864   3.114382   3.776273   2.552959
    29  H    3.015339   4.496155   3.499822   3.815700   2.310734
                   21         22         23         24         25
    21  C    0.000000
    22  C    1.567452   0.000000
    23  C    3.036446   1.567894   0.000000
    24  H    1.110631   2.479057   3.845961   0.000000
    25  H    3.885399   2.600382   2.271657   4.950968   0.000000
    26  H    2.473583   2.133597   2.345900   3.331016   3.109390
    27  C    3.413533   2.150246   1.612269   4.459750   1.120473
    28  H    3.415834   2.274248   1.122226   4.070141   3.179507
    29  H    4.313986   3.158988   2.348815   5.338203   1.824787
                   26         27         28         29
    26  H    0.000000
    27  C    2.114534   0.000000
    28  H    2.253383   2.269333   0.000000
    29  H    2.439285   1.110473   2.600880   0.000000
 Stoichiometry    C12H16Cu(1+)
 Framework group  C1[X(C12H16Cu)]
 Deg. of freedom    81
 Full point group                 C1      NOp   1
 Largest Abelian subgroup         C1      NOp   1
 Largest concise Abelian subgroup C1      NOp   1
                         Standard orientation:                         
 ---------------------------------------------------------------------
 Center     Atomic      Atomic             Coordinates (Angstroms)
 Number     Number       Type             X           Y           Z
 ---------------------------------------------------------------------
      1          6           0       -2.863308    1.464940    0.575617
      2          6           0       -1.752219    0.446532   -1.350931
      3          6           0       -2.207113   -0.808377   -1.031368
      4          6           0       -3.243758   -0.974786    0.057174
      5          1           0       -3.194546   -1.988522    0.495218
      6          1           0       -4.227127   -0.914194   -0.457915
      7          6           0       -3.149307    0.095001    1.146608
      8          1           0       -2.331195   -0.164207    1.861053
      9          1           0       -4.065440    0.109496    1.747307
     10          1           0       -3.169023    2.351593    1.145587
     11          1           0       -1.985942   -1.657827   -1.688845
     12          1           0       -1.155911    0.595103   -2.274416
     13          1           0       -1.945222    2.617844   -0.968041
     14          6           0       -2.189569    1.618267   -0.579353
     15         29           0       -0.248219   -0.328380   -0.067979
     16          1           0        4.373312    0.155590   -1.801106
     17          1           0        0.889150   -0.378762    2.255603
     18          1           0        2.035157    0.278274   -1.159112
     19          6           0        1.416841   -0.353543    1.292610
     20          6           0        2.759207    0.296338    0.861008
     21          6           0        1.539528   -1.302210    0.268863
     22          6           0        2.607148   -0.419704   -0.464809
     23          6           0        4.095436   -0.012002   -0.742425
     24          1           0        1.170670   -2.343378    0.153036
     25          1           0        3.282881    2.091346   -0.466543
     26          1           0        3.450630   -0.317601    1.492319
     27          6           0        3.760257    1.287518    0.151059
     28          1           0        4.856753   -0.661542   -0.234603
     29          1           0        4.575342    1.721964    0.767536
 ---------------------------------------------------------------------
 Rotational constants (GHZ):           1.7250314           0.3640743           0.3547461
 Standard basis: def2SVPP (5D, 7F)
 There are   238 symmetry adapted cartesian basis functions of A   symmetry.
 There are   224 symmetry adapted basis functions of A   symmetry.
   224 basis functions,   435 primitive gaussians,   238 cartesian basis functions
    58 alpha electrons       58 beta electrons
       nuclear repulsion energy      1089.1078325464 Hartrees.
 NAtoms=   29 NActive=   29 NUniq=   29 SFac= 1.00D+00 NAtFMM=   60 NAOKFM=F Big=F
 Integral buffers will be    131072 words long.
 Raffenetti 2 integral format.
 Two-electron integral symmetry is turned on.
 Nuclear repulsion after empirical dispersion term =     1089.0876118386 Hartrees.
 ------------------------------------------------------------------------------
 Polarizable Continuum Model (PCM)
 =================================
 Model                : PCM.
 Atomic radii         : SMD-Coulomb.
 Polarization charges : Total charges.
 Charge compensation  : None.
 Solution method      : On-the-fly selection.
 Cavity type          : VdW (van der Waals Surface) (Alpha=1.000).
 Cavity algorithm     : GePol (No added spheres)
                        Default sphere list used, NSphG=   29.
                        Lebedev-Laikov grids with approx.  5.0 points / Ang**2.
                        Smoothing algorithm: York/Karplus (Gamma=1.0000).
                        Polarization charges: spherical gaussians, with
                                              point-specific exponents (IZeta= 3).
                        Self-potential: point-specific (ISelfS= 7).
                        Self-field    : sphere-specific E.n sum rule (ISelfD= 2).
 1st derivatives      : Analytical E(r).r(x)/FMM algorithm (CHGder, D1EAlg=3).
                        Cavity 1st derivative terms included.
 Solvent              : Benzene, Eps=   2.270600 Eps(inf)=   2.253301
 ------------------------------------------------------------------------------
 ------------------------------------------------------------------------------
 Atomic radii for non-electrostatic terms: SMD-CDS.
 ------------------------------------------------------------------------------
 Nuclear repulsion after PCM non-electrostatic terms =     1089.0763302569 Hartrees.
 One-electron integrals computed using PRISM.
   1 Symmetry operations used in ECPInt.
 ECPInt:  NShTT=    6555 NPrTT=   28210 LenC2=    6332 LenP2D=   19573.
 LDataN:  DoStor=T MaxTD1= 4 Len=   56
 NBasis=   224 RedAO= T EigKep=  5.93D-04  NBF=   224
 NBsUse=   224 1.00D-06 EigRej= -1.00D+00 NBFU=   224
 ExpMin= 3.30D-02 ExpMax= 7.64D+04 ExpMxC= 1.15D+04 IAcc=3 IRadAn=         5 AccDes= 0.00D+00
 Harris functional with IExCor= 4639 and IRadAn=       5 diagonalized for initial guess.
 HarFok:  IExCor= 4639 AccDes= 0.00D+00 IRadAn=         5 IDoV= 1 UseB2=F ITyADJ=14
 ICtDFT=  3500011 ScaDFX=  1.000000  1.000000  1.000000  1.000000
 FoFCou: FMM=F IPFlag=           0 FMFlag=      100000 FMFlg1=           0
         NFxFlg=           0 DoJE=T BraDBF=F KetDBF=T FulRan=T
         wScrn=  0.000000 ICntrl=       500 IOpCl=  0 I1Cent=   200000004 NGrid=           0
         NMat0=    1 NMatS0=      1 NMatT0=    0 NMatD0=    1 NMtDS0=    0 NMtDT0=    0
 Petite list used in FoFCou.
 Initial guess <Sx>= 0.0000 <Sy>= 0.0000 <Sz>= 0.0000 <S**2>=-0.0000 S=-0.0000
 Requested convergence on RMS density matrix=1.00D-08 within 128 cycles.
 Requested convergence on MAX density matrix=1.00D-06.
 Requested convergence on             energy=1.00D-06.
 No special actions if energy rises.
 Inv3:  Mode=1 IEnd=    13700307.
 Iteration    1 A*A^-1 deviation from unit magnitude is 3.89D-15 for   2135.
 Iteration    1 A*A^-1 deviation from orthogonality  is 1.52D-15 for   1534    171.
 Iteration    1 A^-1*A deviation from unit magnitude is 4.11D-15 for   2135.
 Iteration    1 A^-1*A deviation from orthogonality  is 2.11D-15 for   2122    885.
 EnCoef did   100 forward-backward iterations
 EnCoef did     3 forward-backward iterations
 Rare condition: small coef for last iteration:  0.000D+00
 Rare condition: small coef for last iteration:  0.000D+00
 Restarting incremental Fock formation.
 Error on total polarization charges =  0.04832
 SCF Done:  E(UwB97XD) =  -2106.40446851     A.U. after   22 cycles
            NFock= 22  Conv=0.48D-08     -V/T= 2.0043
 <Sx>= 0.0000 <Sy>= 0.0000 <Sz>= 0.0000 <S**2>=-0.0000 S=-0.0000
 <L.S>= 0.000000000000E+00
 SMD-CDS (non-electrostatic) energy       (kcal/mol) =      -7.08
 (included in total energy above)
 Annihilation of the first spin contaminant:
 S**2 before annihilation    -0.0000,   after     0.0000
 QCSCF skips out because SCF is already converged.

 **********************************************************************

            Population analysis using the SCF Density.

 **********************************************************************

 Orbital symmetries:
 Alpha Orbitals:
       Occupied  (A) (A) (A) (A) (A) (A) (A) (A) (A) (A) (A) (A)
                 (A) (A) (A) (A) (A) (A) (A) (A) (A) (A) (A) (A)
                 (A) (A) (A) (A) (A) (A) (A) (A) (A) (A) (A) (A)
                 (A) (A) (A) (A) (A) (A) (A) (A) (A) (A) (A) (A)
                 (A) (A) (A) (A) (A) (A) (A) (A) (A) (A)
       Virtual   (A) (A) (A) (A) (A) (A) (A) (A) (A) (A) (A) (A)
                 (A) (A) (A) (A) (A) (A) (A) (A) (A) (A) (A) (A)
                 (A) (A) (A) (A) (A) (A) (A) (A) (A) (A) (A) (A)
                 (A) (A) (A) (A) (A) (A) (A) (A) (A) (A) (A) (A)
                 (A) (A) (A) (A) (A) (A) (A) (A) (A) (A) (A) (A)
                 (A) (A) (A) (A) (A) (A) (A) (A) (A) (A) (A) (A)
                 (A) (A) (A) (A) (A) (A) (A) (A) (A) (A) (A) (A)
                 (A) (A) (A) (A) (A) (A) (A) (A) (A) (A) (A) (A)
                 (A) (A) (A) (A) (A) (A) (A) (A) (A) (A) (A) (A)
                 (A) (A) (A) (A) (A) (A) (A) (A) (A) (A) (A) (A)
                 (A) (A) (A) (A) (A) (A) (A) (A) (A) (A) (A) (A)
                 (A) (A) (A) (A) (A) (A) (A) (A) (A) (A) (A) (A)
                 (A) (A) (A) (A) (A) (A) (A) (A) (A) (A) (A) (A)
                 (A) (A) (A) (A) (A) (A) (A) (A) (A) (A)
 Beta  Orbitals:
       Occupied  (A) (A) (A) (A) (A) (A) (A) (A) (A) (A) (A) (A)
                 (A) (A) (A) (A) (A) (A) (A) (A) (A) (A) (A) (A)
                 (A) (A) (A) (A) (A) (A) (A) (A) (A) (A) (A) (A)
                 (A) (A) (A) (A) (A) (A) (A) (A) (A) (A) (A) (A)
                 (A) (A) (A) (A) (A) (A) (A) (A) (A) (A)
       Virtual   (A) (A) (A) (A) (A) (A) (A) (A) (A) (A) (A) (A)
                 (A) (A) (A) (A) (A) (A) (A) (A) (A) (A) (A) (A)
                 (A) (A) (A) (A) (A) (A) (A) (A) (A) (A) (A) (A)
                 (A) (A) (A) (A) (A) (A) (A) (A) (A) (A) (A) (A)
                 (A) (A) (A) (A) (A) (A) (A) (A) (A) (A) (A) (A)
                 (A) (A) (A) (A) (A) (A) (A) (A) (A) (A) (A) (A)
                 (A) (A) (A) (A) (A) (A) (A) (A) (A) (A) (A) (A)
                 (A) (A) (A) (A) (A) (A) (A) (A) (A) (A) (A) (A)
                 (A) (A) (A) (A) (A) (A) (A) (A) (A) (A) (A) (A)
                 (A) (A) (A) (A) (A) (A) (A) (A) (A) (A) (A) (A)
                 (A) (A) (A) (A) (A) (A) (A) (A) (A) (A) (A) (A)
                 (A) (A) (A) (A) (A) (A) (A) (A) (A) (A) (A) (A)
                 (A) (A) (A) (A) (A) (A) (A) (A) (A) (A) (A) (A)
                 (A) (A) (A) (A) (A) (A) (A) (A) (A) (A)
 The electronic state is 1-A.
 Alpha  occ. eigenvalues -- -323.36857 -39.08903 -34.28758 -34.28589 -34.28403
 Alpha  occ. eigenvalues --  -10.40925 -10.40687 -10.39459 -10.39366 -10.37081
 Alpha  occ. eigenvalues --  -10.37010 -10.36858 -10.36594 -10.36304 -10.36301
 Alpha  occ. eigenvalues --  -10.36283 -10.36119  -4.49904  -2.99237  -2.98400
 Alpha  occ. eigenvalues --   -2.98092  -1.05942  -1.01678  -0.94550  -0.91646
 Alpha  occ. eigenvalues --   -0.90698  -0.80441  -0.78161  -0.77703  -0.75492
 Alpha  occ. eigenvalues --   -0.74418  -0.69384  -0.67312  -0.64929  -0.64368
 Alpha  occ. eigenvalues --   -0.60348  -0.59896  -0.59031  -0.58016  -0.57648
 Alpha  occ. eigenvalues --   -0.55534  -0.55002  -0.52689  -0.52480  -0.50721
 Alpha  occ. eigenvalues --   -0.48779  -0.48346  -0.47754  -0.47566  -0.47089
 Alpha  occ. eigenvalues --   -0.46166  -0.45761  -0.45317  -0.45139  -0.44443
 Alpha  occ. eigenvalues --   -0.41185  -0.39416  -0.37385
 Alpha virt. eigenvalues --   -0.06659  -0.03773   0.01516   0.03906   0.07454
 Alpha virt. eigenvalues --    0.08305   0.08823   0.10071   0.10417   0.11489
 Alpha virt. eigenvalues --    0.12637   0.13103   0.14077   0.15004   0.15538
 Alpha virt. eigenvalues --    0.16113   0.16806   0.17760   0.18722   0.18770
 Alpha virt. eigenvalues --    0.19496   0.20082   0.20755   0.21304   0.21850
 Alpha virt. eigenvalues --    0.22564   0.24311   0.24885   0.25801   0.26176
 Alpha virt. eigenvalues --    0.28817   0.32042   0.32281   0.33491   0.38311
 Alpha virt. eigenvalues --    0.39609   0.42156   0.44110   0.45846   0.46082
 Alpha virt. eigenvalues --    0.46941   0.47692   0.49316   0.49510   0.51372
 Alpha virt. eigenvalues --    0.52475   0.52730   0.52928   0.54793   0.57443
 Alpha virt. eigenvalues --    0.57992   0.59340   0.59603   0.61822   0.62065
 Alpha virt. eigenvalues --    0.63061   0.64542   0.65269   0.66349   0.66979
 Alpha virt. eigenvalues --    0.67243   0.67917   0.68423   0.69481   0.70229
 Alpha virt. eigenvalues --    0.70400   0.71416   0.71860   0.72770   0.73064
 Alpha virt. eigenvalues --    0.73229   0.73744   0.73927   0.74766   0.75329
 Alpha virt. eigenvalues --    0.75916   0.76225   0.76555   0.76994   0.78263
 Alpha virt. eigenvalues --    0.79272   0.81290   0.81602   0.82728   0.86065
 Alpha virt. eigenvalues --    0.86473   0.87191   0.87877   0.89237   0.90752
 Alpha virt. eigenvalues --    0.99305   0.99988   1.00979   1.02240   1.03648
 Alpha virt. eigenvalues --    1.07238   1.09587   1.12588   1.13878   1.18034
 Alpha virt. eigenvalues --    1.21805   1.26132   1.32263   1.35374   1.40060
 Alpha virt. eigenvalues --    1.40145   1.43727   1.47940   1.54013   1.54374
 Alpha virt. eigenvalues --    1.55779   1.57052   1.59799   1.63002   1.66749
 Alpha virt. eigenvalues --    1.71090   1.71778   1.75103   1.77365   1.81380
 Alpha virt. eigenvalues --    1.83225   1.86343   1.89181   1.90087   1.91033
 Alpha virt. eigenvalues --    1.93314   1.93704   1.95994   1.96863   1.96977
 Alpha virt. eigenvalues --    2.00934   2.02455   2.05150   2.08846   2.10689
 Alpha virt. eigenvalues --    2.12083   2.12565   2.14650   2.16361   2.20149
 Alpha virt. eigenvalues --    2.21283   2.23453   2.25080   2.28023   2.30198
 Alpha virt. eigenvalues --    2.31400   2.33977   2.35550   2.38815   2.41473
 Alpha virt. eigenvalues --    2.42037   2.46212   2.47674   2.50202   2.51316
 Alpha virt. eigenvalues --    2.52257   2.53923   2.64835   2.66003   2.66604
 Alpha virt. eigenvalues --    2.70329   2.72793   2.77322   2.90377   3.02372
 Alpha virt. eigenvalues --    3.12358
  Beta  occ. eigenvalues -- -323.36857 -39.08903 -34.28758 -34.28589 -34.28403
  Beta  occ. eigenvalues --  -10.40925 -10.40687 -10.39459 -10.39366 -10.37081
  Beta  occ. eigenvalues --  -10.37010 -10.36858 -10.36594 -10.36304 -10.36301
  Beta  occ. eigenvalues --  -10.36283 -10.36119  -4.49904  -2.99237  -2.98400
  Beta  occ. eigenvalues --   -2.98092  -1.05942  -1.01678  -0.94550  -0.91646
  Beta  occ. eigenvalues --   -0.90698  -0.80441  -0.78161  -0.77703  -0.75492
  Beta  occ. eigenvalues --   -0.74418  -0.69384  -0.67312  -0.64929  -0.64368
  Beta  occ. eigenvalues --   -0.60348  -0.59896  -0.59031  -0.58016  -0.57648
  Beta  occ. eigenvalues --   -0.55534  -0.55002  -0.52689  -0.52480  -0.50721
  Beta  occ. eigenvalues --   -0.48779  -0.48346  -0.47754  -0.47566  -0.47089
  Beta  occ. eigenvalues --   -0.46166  -0.45761  -0.45317  -0.45139  -0.44443
  Beta  occ. eigenvalues --   -0.41185  -0.39416  -0.37385
  Beta virt. eigenvalues --   -0.06659  -0.03773   0.01516   0.03906   0.07454
  Beta virt. eigenvalues --    0.08305   0.08823   0.10071   0.10417   0.11489
  Beta virt. eigenvalues --    0.12637   0.13103   0.14077   0.15004   0.15538
  Beta virt. eigenvalues --    0.16113   0.16806   0.17760   0.18722   0.18770
  Beta virt. eigenvalues --    0.19496   0.20082   0.20755   0.21304   0.21850
  Beta virt. eigenvalues --    0.22564   0.24311   0.24885   0.25801   0.26176
  Beta virt. eigenvalues --    0.28817   0.32042   0.32281   0.33491   0.38311
  Beta virt. eigenvalues --    0.39609   0.42156   0.44110   0.45846   0.46082
  Beta virt. eigenvalues --    0.46941   0.47692   0.49316   0.49510   0.51372
  Beta virt. eigenvalues --    0.52475   0.52730   0.52928   0.54793   0.57443
  Beta virt. eigenvalues --    0.57992   0.59340   0.59603   0.61822   0.62065
  Beta virt. eigenvalues --    0.63061   0.64542   0.65269   0.66349   0.66979
  Beta virt. eigenvalues --    0.67243   0.67917   0.68423   0.69481   0.70229
  Beta virt. eigenvalues --    0.70400   0.71416   0.71860   0.72770   0.73064
  Beta virt. eigenvalues --    0.73229   0.73744   0.73927   0.74766   0.75329
  Beta virt. eigenvalues --    0.75916   0.76225   0.76555   0.76994   0.78263
  Beta virt. eigenvalues --    0.79272   0.81290   0.81602   0.82728   0.86065
  Beta virt. eigenvalues --    0.86473   0.87191   0.87877   0.89237   0.90752
  Beta virt. eigenvalues --    0.99305   0.99988   1.00979   1.02240   1.03648
  Beta virt. eigenvalues --    1.07238   1.09587   1.12588   1.13878   1.18034
  Beta virt. eigenvalues --    1.21805   1.26132   1.32263   1.35374   1.40060
  Beta virt. eigenvalues --    1.40145   1.43727   1.47940   1.54013   1.54374
  Beta virt. eigenvalues --    1.55779   1.57052   1.59799   1.63002   1.66749
  Beta virt. eigenvalues --    1.71090   1.71778   1.75103   1.77365   1.81380
  Beta virt. eigenvalues --    1.83225   1.86343   1.89181   1.90087   1.91033
  Beta virt. eigenvalues --    1.93314   1.93704   1.95994   1.96863   1.96977
  Beta virt. eigenvalues --    2.00934   2.02455   2.05150   2.08846   2.10689
  Beta virt. eigenvalues --    2.12083   2.12565   2.14650   2.16361   2.20149
  Beta virt. eigenvalues --    2.21283   2.23453   2.25080   2.28023   2.30198
  Beta virt. eigenvalues --    2.31400   2.33977   2.35550   2.38815   2.41473
  Beta virt. eigenvalues --    2.42037   2.46212   2.47674   2.50202   2.51316
  Beta virt. eigenvalues --    2.52257   2.53923   2.64835   2.66003   2.66604
  Beta virt. eigenvalues --    2.70329   2.72793   2.77322   2.90377   3.02372
  Beta virt. eigenvalues --    3.12358
          Condensed to atoms (all electrons):
               1          2          3          4          5          6
     1  C    5.011386   0.044357  -0.063981  -0.029464   0.004530   0.004584
     2  C    0.044357   5.398640   0.214291  -0.001839   0.005084  -0.006075
     3  C   -0.063981   0.214291   5.229157   0.319621  -0.017464  -0.029077
     4  C   -0.029464  -0.001839   0.319621   4.843701   0.374870   0.369510
     5  H    0.004530   0.005084  -0.017464   0.374870   0.534522  -0.018647
     6  H    0.004584  -0.006075  -0.029077   0.369510  -0.018647   0.534373
     7  C    0.309398  -0.078963  -0.002784   0.374684  -0.022263  -0.022188
     8  H   -0.017112   0.005497  -0.008365  -0.015708  -0.008251   0.006337
     9  H   -0.012423   0.001065   0.004607  -0.016100  -0.000692  -0.008424
    10  H    0.406378   0.008574  -0.000550   0.005293  -0.000174   0.000103
    11  H   -0.000671  -0.037151   0.401755  -0.034342  -0.004417   0.000238
    12  H    0.007243   0.406380  -0.044354   0.005755  -0.000167  -0.000158
    13  H   -0.047266  -0.065032   0.009553  -0.000957   0.000026  -0.000042
    14  C    0.542537   0.149126   0.024487  -0.034731   0.001194  -0.000724
    15  Cu  -0.000272   0.181432   0.124647  -0.016511  -0.001429   0.002474
    16  H    0.000000   0.000000  -0.000000  -0.000000   0.000000   0.000000
    17  H   -0.000059   0.000099   0.000038  -0.000031  -0.000011   0.000002
    18  H   -0.000001   0.000345   0.000012   0.000003  -0.000001   0.000000
    19  C    0.000697  -0.002258   0.000522   0.000124   0.000011  -0.000006
    20  C   -0.000024   0.000445  -0.000274   0.000014   0.000000  -0.000000
    21  C   -0.000129   0.004473  -0.001205  -0.000456   0.000044   0.000004
    22  C    0.000001  -0.001035  -0.000095   0.000018   0.000001  -0.000000
    23  C   -0.000000  -0.000015  -0.000001  -0.000000   0.000000   0.000000
    24  H    0.000003  -0.000072   0.000224  -0.000058  -0.000003   0.000001
    25  H    0.000000  -0.000006   0.000001  -0.000000   0.000000  -0.000000
    26  H    0.000000  -0.000004   0.000003  -0.000000   0.000000   0.000000
    27  C   -0.000000   0.000038  -0.000003   0.000000  -0.000000  -0.000000
    28  H   -0.000000  -0.000000   0.000000   0.000000  -0.000000  -0.000000
    29  H    0.000000  -0.000000  -0.000000  -0.000000   0.000000   0.000000
               7          8          9         10         11         12
     1  C    0.309398  -0.017112  -0.012423   0.406378  -0.000671   0.007243
     2  C   -0.078963   0.005497   0.001065   0.008574  -0.037151   0.406380
     3  C   -0.002784  -0.008365   0.004607  -0.000550   0.401755  -0.044354
     4  C    0.374684  -0.015708  -0.016100   0.005293  -0.034342   0.005755
     5  H   -0.022263  -0.008251  -0.000692  -0.000174  -0.004417  -0.000167
     6  H   -0.022188   0.006337  -0.008424   0.000103   0.000238  -0.000158
     7  C    4.962321   0.345958   0.370395  -0.044413   0.005589  -0.000175
     8  H    0.345958   0.570443  -0.019289   0.001518   0.000006  -0.000024
     9  H    0.370395  -0.019289   0.522618  -0.004596  -0.000134   0.000032
    10  H   -0.044413   0.001518  -0.004596   0.520165   0.000022  -0.000126
    11  H    0.005589   0.000006  -0.000134   0.000022   0.496444  -0.007441
    12  H   -0.000175  -0.000024   0.000032  -0.000126  -0.007441   0.506291
    13  H    0.008664  -0.000268  -0.000157  -0.009100  -0.000108  -0.006059
    14  C   -0.009188  -0.016504   0.004214  -0.035913   0.006513  -0.041574
    15  Cu   0.000057   0.013897  -0.000393   0.000360  -0.003151   0.000057
    16  H   -0.000000   0.000000   0.000000   0.000000   0.000000  -0.000000
    17  H    0.000166   0.000891  -0.000002   0.000000   0.000001   0.000004
    18  H    0.000003  -0.000001   0.000000  -0.000000  -0.000028   0.000410
    19  C   -0.000912  -0.000203   0.000002   0.000004  -0.000096  -0.000056
    20  C    0.000002   0.000036  -0.000000  -0.000000   0.000006  -0.000025
    21  C    0.000266  -0.000014   0.000002  -0.000000   0.000285   0.000060
    22  C   -0.000010  -0.000002  -0.000000   0.000000  -0.000054   0.000013
    23  C    0.000000   0.000000   0.000000  -0.000000   0.000000   0.000000
    24  H   -0.000011  -0.000009  -0.000000   0.000000   0.000022  -0.000017
    25  H   -0.000000  -0.000000   0.000000  -0.000000  -0.000000  -0.000008
    26  H   -0.000000  -0.000001   0.000000   0.000000  -0.000000  -0.000000
    27  C    0.000000  -0.000000  -0.000000  -0.000000  -0.000000  -0.000005
    28  H    0.000000  -0.000000  -0.000000  -0.000000  -0.000000  -0.000000
    29  H   -0.000000   0.000000   0.000000   0.000000   0.000000   0.000000
              13         14         15         16         17         18
     1  C   -0.047266   0.542537  -0.000272   0.000000  -0.000059  -0.000001
     2  C   -0.065032   0.149126   0.181432   0.000000   0.000099   0.000345
     3  C    0.009553   0.024487   0.124647  -0.000000   0.000038   0.000012
     4  C   -0.000957  -0.034731  -0.016511  -0.000000  -0.000031   0.000003
     5  H    0.000026   0.001194  -0.001429   0.000000  -0.000011  -0.000001
     6  H   -0.000042  -0.000724   0.002474   0.000000   0.000002   0.000000
     7  C    0.008664  -0.009188   0.000057  -0.000000   0.000166   0.000003
     8  H   -0.000268  -0.016504   0.013897   0.000000   0.000891  -0.000001
     9  H   -0.000157   0.004214  -0.000393   0.000000  -0.000002   0.000000
    10  H   -0.009100  -0.035913   0.000360   0.000000   0.000000  -0.000000
    11  H   -0.000108   0.006513  -0.003151   0.000000   0.000001  -0.000028
    12  H   -0.006059  -0.041574   0.000057  -0.000000   0.000004   0.000410
    13  H    0.535541   0.430183   0.000609  -0.000000  -0.000001  -0.000008
    14  C    0.430183   5.070268  -0.025617  -0.000000  -0.000145  -0.000137
    15  Cu   0.000609  -0.025617  28.032293  -0.000102  -0.002307   0.001880
    16  H   -0.000000  -0.000000  -0.000102   0.547983   0.000025  -0.006755
    17  H   -0.000001  -0.000145  -0.002307   0.000025   0.487961  -0.000270
    18  H   -0.000008  -0.000137   0.001880  -0.006755  -0.000270   0.572277
    19  C   -0.000018   0.000441   0.150291  -0.001022   0.377421  -0.022482
    20  C    0.000002  -0.000110  -0.023081   0.012967  -0.021964  -0.032084
    21  C    0.000022  -0.000310   0.194047   0.000811  -0.036841  -0.050710
    22  C   -0.000003   0.000030  -0.029409  -0.003085   0.014243   0.392822
    23  C    0.000000   0.000000   0.000975   0.350586  -0.000797  -0.032135
    24  H   -0.000001  -0.000023   0.006411   0.000076  -0.000988   0.000535
    25  H    0.000001   0.000001   0.001173  -0.003636  -0.000030   0.006187
    26  H    0.000000   0.000000   0.002745   0.000520  -0.000956   0.006032
    27  C   -0.000001  -0.000006  -0.002017  -0.020136  -0.000903   0.001892
    28  H   -0.000000   0.000000   0.000204  -0.021903  -0.000010   0.004990
    29  H   -0.000000   0.000000  -0.000141   0.001516   0.000094   0.000073
              19         20         21         22         23         24
     1  C    0.000697  -0.000024  -0.000129   0.000001  -0.000000   0.000003
     2  C   -0.002258   0.000445   0.004473  -0.001035  -0.000015  -0.000072
     3  C    0.000522  -0.000274  -0.001205  -0.000095  -0.000001   0.000224
     4  C    0.000124   0.000014  -0.000456   0.000018  -0.000000  -0.000058
     5  H    0.000011   0.000000   0.000044   0.000001   0.000000  -0.000003
     6  H   -0.000006  -0.000000   0.000004  -0.000000   0.000000   0.000001
     7  C   -0.000912   0.000002   0.000266  -0.000010   0.000000  -0.000011
     8  H   -0.000203   0.000036  -0.000014  -0.000002   0.000000  -0.000009
     9  H    0.000002  -0.000000   0.000002  -0.000000   0.000000  -0.000000
    10  H    0.000004  -0.000000  -0.000000   0.000000  -0.000000   0.000000
    11  H   -0.000096   0.000006   0.000285  -0.000054   0.000000   0.000022
    12  H   -0.000056  -0.000025   0.000060   0.000013   0.000000  -0.000017
    13  H   -0.000018   0.000002   0.000022  -0.000003   0.000000  -0.000001
    14  C    0.000441  -0.000110  -0.000310   0.000030   0.000000  -0.000023
    15  Cu   0.150291  -0.023081   0.194047  -0.029409   0.000975   0.006411
    16  H   -0.001022   0.012967   0.000811  -0.003085   0.350586   0.000076
    17  H    0.377421  -0.021964  -0.036841   0.014243  -0.000797  -0.000988
    18  H   -0.022482  -0.032084  -0.050710   0.392822  -0.032135   0.000535
    19  C    5.394949   0.165134   0.228358  -0.115572   0.022443  -0.029055
    20  C    0.165134   5.257329  -0.131396   0.446933  -0.200766   0.009732
    21  C    0.228358  -0.131396   5.607357   0.044868   0.021931   0.366159
    22  C   -0.115572   0.446933   0.044868   5.391773   0.247828  -0.020274
    23  C    0.022443  -0.200766   0.021931   0.247828   5.032917  -0.001468
    24  H   -0.029055   0.009732   0.366159  -0.020274  -0.001468   0.475221
    25  H   -0.004448  -0.016759   0.000327  -0.002426  -0.023544   0.000006
    26  H   -0.057771   0.412327  -0.010490  -0.039233   0.000538   0.000366
    27  C    0.018195   0.246410   0.021593  -0.194441   0.418333  -0.000810
    28  H   -0.000422  -0.002437  -0.004846  -0.021259   0.374580   0.000074
    29  H    0.000423  -0.004364  -0.001025   0.012547  -0.018802   0.000024
              25         26         27         28         29
     1  C    0.000000   0.000000  -0.000000  -0.000000   0.000000
     2  C   -0.000006  -0.000004   0.000038  -0.000000  -0.000000
     3  C    0.000001   0.000003  -0.000003   0.000000  -0.000000
     4  C   -0.000000  -0.000000   0.000000   0.000000  -0.000000
     5  H    0.000000   0.000000  -0.000000  -0.000000   0.000000
     6  H   -0.000000   0.000000  -0.000000  -0.000000   0.000000
     7  C   -0.000000  -0.000000   0.000000   0.000000  -0.000000
     8  H   -0.000000  -0.000001  -0.000000  -0.000000   0.000000
     9  H    0.000000   0.000000  -0.000000  -0.000000   0.000000
    10  H   -0.000000   0.000000  -0.000000  -0.000000   0.000000
    11  H   -0.000000  -0.000000  -0.000000  -0.000000   0.000000
    12  H   -0.000008  -0.000000  -0.000005  -0.000000   0.000000
    13  H    0.000001   0.000000  -0.000001  -0.000000  -0.000000
    14  C    0.000001   0.000000  -0.000006   0.000000   0.000000
    15  Cu   0.001173   0.002745  -0.002017   0.000204  -0.000141
    16  H   -0.003636   0.000520  -0.020136  -0.021903   0.001516
    17  H   -0.000030  -0.000956  -0.000903  -0.000010   0.000094
    18  H    0.006187   0.006032   0.001892   0.004990   0.000073
    19  C   -0.004448  -0.057771   0.018195  -0.000422   0.000423
    20  C   -0.016759   0.412327   0.246410  -0.002437  -0.004364
    21  C    0.000327  -0.010490   0.021593  -0.004846  -0.001025
    22  C   -0.002426  -0.039233  -0.194441  -0.021259   0.012547
    23  C   -0.023544   0.000538   0.418333   0.374580  -0.018802
    24  H    0.000006   0.000366  -0.000810   0.000074   0.000024
    25  H    0.544427   0.005520   0.364696   0.003471  -0.021817
    26  H    0.005520   0.566089  -0.055812   0.006279  -0.004923
    27  C    0.364696  -0.055812   5.063753  -0.020744   0.357274
    28  H    0.003471   0.006279  -0.020744   0.528342  -0.004018
    29  H   -0.021817  -0.004923   0.357274  -0.004018   0.531994
          Atomic-Atomic Spin Densities.
               1          2          3          4          5          6
     1  C   -0.000000  -0.000000   0.000000  -0.000000  -0.000000   0.000000
     2  C   -0.000000  -0.000000   0.000000  -0.000000  -0.000000   0.000000
     3  C    0.000000   0.000000  -0.000000   0.000000  -0.000000  -0.000000
     4  C   -0.000000  -0.000000   0.000000  -0.000000   0.000000   0.000000
     5  H   -0.000000  -0.000000  -0.000000   0.000000  -0.000000  -0.000000
     6  H    0.000000   0.000000  -0.000000   0.000000  -0.000000   0.000000
     7  C    0.000000   0.000000  -0.000000   0.000000  -0.000000   0.000000
     8  H   -0.000000  -0.000000   0.000000  -0.000000   0.000000  -0.000000
     9  H    0.000000  -0.000000   0.000000   0.000000  -0.000000  -0.000000
    10  H   -0.000000  -0.000000   0.000000  -0.000000   0.000000  -0.000000
    11  H    0.000000   0.000000  -0.000000   0.000000  -0.000000  -0.000000
    12  H   -0.000000  -0.000000   0.000000  -0.000000   0.000000   0.000000
    13  H    0.000000   0.000000  -0.000000   0.000000  -0.000000   0.000000
    14  C    0.000000   0.000000  -0.000000   0.000000   0.000000  -0.000000
    15  Cu   0.000000   0.000000  -0.000000   0.000000  -0.000000   0.000000
    16  H    0.000000   0.000000  -0.000000   0.000000  -0.000000   0.000000
    17  H   -0.000000   0.000000  -0.000000   0.000000  -0.000000   0.000000
    18  H    0.000000  -0.000000  -0.000000   0.000000   0.000000  -0.000000
    19  C    0.000000   0.000000   0.000000  -0.000000  -0.000000   0.000000
    20  C   -0.000000  -0.000000   0.000000   0.000000   0.000000  -0.000000
    21  C    0.000000   0.000000  -0.000000   0.000000   0.000000  -0.000000
    22  C   -0.000000  -0.000000   0.000000  -0.000000  -0.000000   0.000000
    23  C    0.000000  -0.000000  -0.000000   0.000000  -0.000000  -0.000000
    24  H    0.000000   0.000000  -0.000000   0.000000   0.000000  -0.000000
    25  H    0.000000   0.000000  -0.000000   0.000000  -0.000000  -0.000000
    26  H    0.000000   0.000000  -0.000000   0.000000  -0.000000  -0.000000
    27  C   -0.000000  -0.000000   0.000000  -0.000000   0.000000   0.000000
    28  H   -0.000000  -0.000000   0.000000  -0.000000   0.000000   0.000000
    29  H    0.000000   0.000000  -0.000000   0.000000   0.000000  -0.000000
               7          8          9         10         11         12
     1  C    0.000000  -0.000000   0.000000  -0.000000   0.000000  -0.000000
     2  C    0.000000  -0.000000  -0.000000  -0.000000   0.000000  -0.000000
     3  C   -0.000000   0.000000   0.000000   0.000000  -0.000000   0.000000
     4  C    0.000000  -0.000000   0.000000  -0.000000   0.000000  -0.000000
     5  H   -0.000000   0.000000  -0.000000   0.000000  -0.000000   0.000000
     6  H    0.000000  -0.000000  -0.000000  -0.000000  -0.000000   0.000000
     7  C   -0.000000   0.000000  -0.000000   0.000000  -0.000000   0.000000
     8  H    0.000000  -0.000000   0.000000   0.000000  -0.000000   0.000000
     9  H   -0.000000   0.000000   0.000000   0.000000   0.000000  -0.000000
    10  H    0.000000   0.000000   0.000000  -0.000000   0.000000   0.000000
    11  H   -0.000000  -0.000000   0.000000   0.000000  -0.000000  -0.000000
    12  H    0.000000   0.000000  -0.000000   0.000000  -0.000000   0.000000
    13  H   -0.000000  -0.000000  -0.000000   0.000000  -0.000000   0.000000
    14  C   -0.000000  -0.000000  -0.000000   0.000000  -0.000000   0.000000
    15  Cu  -0.000000  -0.000000  -0.000000  -0.000000   0.000000   0.000000
    16  H   -0.000000   0.000000   0.000000  -0.000000  -0.000000   0.000000
    17  H   -0.000000   0.000000  -0.000000   0.000000  -0.000000   0.000000
    18  H   -0.000000  -0.000000  -0.000000   0.000000  -0.000000  -0.000000
    19  C    0.000000   0.000000   0.000000   0.000000   0.000000   0.000000
    20  C   -0.000000  -0.000000  -0.000000   0.000000  -0.000000  -0.000000
    21  C   -0.000000  -0.000000  -0.000000  -0.000000  -0.000000  -0.000000
    22  C    0.000000   0.000000   0.000000   0.000000   0.000000   0.000000
    23  C    0.000000  -0.000000  -0.000000  -0.000000   0.000000  -0.000000
    24  H   -0.000000  -0.000000  -0.000000   0.000000  -0.000000  -0.000000
    25  H   -0.000000  -0.000000   0.000000  -0.000000  -0.000000   0.000000
    26  H   -0.000000  -0.000000   0.000000  -0.000000   0.000000   0.000000
    27  C    0.000000   0.000000   0.000000   0.000000   0.000000   0.000000
    28  H    0.000000   0.000000   0.000000   0.000000   0.000000   0.000000
    29  H   -0.000000  -0.000000  -0.000000   0.000000   0.000000   0.000000
              13         14         15         16         17         18
     1  C    0.000000   0.000000   0.000000   0.000000  -0.000000   0.000000
     2  C    0.000000   0.000000   0.000000   0.000000   0.000000  -0.000000
     3  C   -0.000000  -0.000000  -0.000000  -0.000000  -0.000000  -0.000000
     4  C    0.000000   0.000000   0.000000   0.000000   0.000000   0.000000
     5  H   -0.000000   0.000000  -0.000000  -0.000000  -0.000000   0.000000
     6  H    0.000000  -0.000000   0.000000   0.000000   0.000000  -0.000000
     7  C   -0.000000  -0.000000  -0.000000  -0.000000  -0.000000  -0.000000
     8  H   -0.000000  -0.000000  -0.000000   0.000000   0.000000  -0.000000
     9  H   -0.000000  -0.000000  -0.000000   0.000000  -0.000000  -0.000000
    10  H    0.000000   0.000000  -0.000000  -0.000000   0.000000   0.000000
    11  H   -0.000000  -0.000000   0.000000  -0.000000  -0.000000  -0.000000
    12  H    0.000000   0.000000   0.000000   0.000000   0.000000  -0.000000
    13  H   -0.000000  -0.000000   0.000000  -0.000000  -0.000000  -0.000000
    14  C   -0.000000  -0.000000  -0.000000  -0.000000  -0.000000   0.000000
    15  Cu   0.000000  -0.000000   0.000000   0.000000  -0.000000  -0.000000
    16  H   -0.000000  -0.000000   0.000000  -0.000000  -0.000000   0.000000
    17  H   -0.000000  -0.000000  -0.000000  -0.000000   0.000000   0.000000
    18  H   -0.000000   0.000000  -0.000000   0.000000   0.000000   0.000000
    19  C    0.000000  -0.000000  -0.000000  -0.000000   0.000000   0.000000
    20  C   -0.000000   0.000000  -0.000000   0.000000  -0.000000  -0.000000
    21  C   -0.000000  -0.000000   0.000000   0.000000  -0.000000  -0.000000
    22  C    0.000000   0.000000   0.000000  -0.000000   0.000000  -0.000000
    23  C    0.000000   0.000000  -0.000000   0.000000   0.000000   0.000000
    24  H   -0.000000  -0.000000  -0.000000  -0.000000   0.000000   0.000000
    25  H   -0.000000  -0.000000   0.000000   0.000000   0.000000  -0.000000
    26  H   -0.000000  -0.000000   0.000000  -0.000000   0.000000   0.000000
    27  C    0.000000   0.000000  -0.000000  -0.000000  -0.000000   0.000000
    28  H    0.000000   0.000000  -0.000000   0.000000   0.000000   0.000000
    29  H   -0.000000  -0.000000   0.000000   0.000000   0.000000  -0.000000
              19         20         21         22         23         24
     1  C    0.000000  -0.000000   0.000000  -0.000000   0.000000   0.000000
     2  C    0.000000  -0.000000   0.000000  -0.000000  -0.000000   0.000000
     3  C    0.000000   0.000000  -0.000000   0.000000  -0.000000  -0.000000
     4  C   -0.000000   0.000000   0.000000  -0.000000   0.000000   0.000000
     5  H   -0.000000   0.000000   0.000000  -0.000000  -0.000000   0.000000
     6  H    0.000000  -0.000000  -0.000000   0.000000  -0.000000  -0.000000
     7  C    0.000000  -0.000000  -0.000000   0.000000   0.000000  -0.000000
     8  H    0.000000  -0.000000  -0.000000   0.000000  -0.000000  -0.000000
     9  H    0.000000  -0.000000  -0.000000   0.000000  -0.000000  -0.000000
    10  H    0.000000   0.000000  -0.000000   0.000000  -0.000000   0.000000
    11  H    0.000000  -0.000000  -0.000000   0.000000   0.000000  -0.000000
    12  H    0.000000  -0.000000  -0.000000   0.000000  -0.000000  -0.000000
    13  H    0.000000  -0.000000  -0.000000   0.000000   0.000000  -0.000000
    14  C   -0.000000   0.000000  -0.000000   0.000000   0.000000  -0.000000
    15  Cu  -0.000000  -0.000000   0.000000   0.000000  -0.000000  -0.000000
    16  H   -0.000000   0.000000   0.000000  -0.000000   0.000000  -0.000000
    17  H    0.000000  -0.000000  -0.000000   0.000000   0.000000   0.000000
    18  H    0.000000  -0.000000  -0.000000  -0.000000   0.000000   0.000000
    19  C   -0.000000   0.000000   0.000000  -0.000000   0.000000   0.000000
    20  C    0.000000   0.000000  -0.000000  -0.000000  -0.000000  -0.000000
    21  C    0.000000  -0.000000  -0.000000   0.000000  -0.000000  -0.000000
    22  C   -0.000000  -0.000000   0.000000   0.000000   0.000000   0.000000
    23  C    0.000000  -0.000000  -0.000000   0.000000  -0.000000   0.000000
    24  H    0.000000  -0.000000  -0.000000   0.000000   0.000000  -0.000000
    25  H    0.000000   0.000000  -0.000000   0.000000  -0.000000  -0.000000
    26  H    0.000000   0.000000  -0.000000  -0.000000   0.000000  -0.000000
    27  C   -0.000000  -0.000000   0.000000  -0.000000   0.000000  -0.000000
    28  H   -0.000000   0.000000   0.000000  -0.000000   0.000000   0.000000
    29  H    0.000000  -0.000000  -0.000000   0.000000  -0.000000   0.000000
              25         26         27         28         29
     1  C    0.000000   0.000000  -0.000000  -0.000000   0.000000
     2  C    0.000000   0.000000  -0.000000  -0.000000   0.000000
     3  C   -0.000000  -0.000000   0.000000   0.000000  -0.000000
     4  C    0.000000   0.000000  -0.000000  -0.000000   0.000000
     5  H   -0.000000  -0.000000   0.000000   0.000000   0.000000
     6  H   -0.000000  -0.000000   0.000000   0.000000  -0.000000
     7  C   -0.000000  -0.000000   0.000000   0.000000  -0.000000
     8  H   -0.000000  -0.000000   0.000000   0.000000  -0.000000
     9  H    0.000000   0.000000   0.000000   0.000000  -0.000000
    10  H   -0.000000  -0.000000   0.000000   0.000000   0.000000
    11  H   -0.000000   0.000000   0.000000   0.000000   0.000000
    12  H    0.000000   0.000000   0.000000   0.000000   0.000000
    13  H   -0.000000  -0.000000   0.000000   0.000000  -0.000000
    14  C   -0.000000  -0.000000   0.000000   0.000000  -0.000000
    15  Cu   0.000000   0.000000  -0.000000  -0.000000   0.000000
    16  H    0.000000  -0.000000  -0.000000   0.000000   0.000000
    17  H    0.000000   0.000000  -0.000000   0.000000   0.000000
    18  H   -0.000000   0.000000   0.000000   0.000000  -0.000000
    19  C    0.000000   0.000000  -0.000000  -0.000000   0.000000
    20  C    0.000000   0.000000  -0.000000   0.000000  -0.000000
    21  C   -0.000000  -0.000000   0.000000   0.000000  -0.000000
    22  C    0.000000  -0.000000  -0.000000  -0.000000   0.000000
    23  C   -0.000000   0.000000   0.000000   0.000000  -0.000000
    24  H   -0.000000  -0.000000  -0.000000   0.000000   0.000000
    25  H   -0.000000  -0.000000  -0.000000   0.000000  -0.000000
    26  H   -0.000000  -0.000000  -0.000000   0.000000   0.000000
    27  C   -0.000000  -0.000000   0.000000  -0.000000   0.000000
    28  H    0.000000   0.000000  -0.000000  -0.000000   0.000000
    29  H   -0.000000   0.000000   0.000000   0.000000  -0.000000
 Mulliken charges and spin densities:
               1          2
     1  C   -0.159711  -0.000000
     2  C   -0.227397  -0.000000
     3  C   -0.160764   0.000000
     4  C   -0.143394  -0.000000
     5  H    0.153235  -0.000000
     6  H    0.167713   0.000000
     7  C   -0.196597   0.000000
     8  H    0.141169  -0.000000
     9  H    0.159276   0.000000
    10  H    0.152458  -0.000000
    11  H    0.176713  -0.000000
    12  H    0.173946   0.000000
    13  H    0.144418  -0.000000
    14  C   -0.064012   0.000000
    15  Cu   0.390878   0.000000
    16  H    0.142154   0.000000
    17  H    0.184372  -0.000000
    18  H    0.157150  -0.000000
    19  C   -0.124694  -0.000000
    20  C   -0.118053   0.000000
    21  C   -0.253182   0.000000
    22  C   -0.124181   0.000000
    23  C   -0.192604  -0.000000
    24  H    0.193935  -0.000000
    25  H    0.146864  -0.000000
    26  H    0.168771  -0.000000
    27  C   -0.197307   0.000000
    28  H    0.157699   0.000000
    29  H    0.151146  -0.000000
 Sum of Mulliken charges =   1.00000   0.00000
 Mulliken charges and spin densities with hydrogens summed into heavy atoms:
               1          2
     1  C   -0.007253  -0.000000
     2  C   -0.053451  -0.000000
     3  C    0.015949   0.000000
     4  C    0.177555  -0.000000
     7  C    0.103848   0.000000
    14  C    0.080406   0.000000
    15  Cu   0.390878   0.000000
    19  C    0.059678  -0.000000
    20  C    0.050717   0.000000
    21  C   -0.059247  -0.000000
    22  C    0.032969   0.000000
    23  C    0.107249  -0.000000
    27  C    0.100703   0.000000
 Electronic spatial extent (au):  <R**2>=           3325.0536
 Charge=              1.0000 electrons
 Dipole moment (field-independent basis, Debye):
    X=             -1.2462    Y=             -1.0879    Z=              0.2344  Tot=              1.6707
 Quadrupole moment (field-independent basis, Debye-Ang):
   XX=            -55.1806   YY=            -75.6460   ZZ=            -76.0392
   XY=              1.0078   XZ=             -0.8472   YZ=             -0.8702
 Traceless Quadrupole moment (field-independent basis, Debye-Ang):
   XX=             13.7747   YY=             -6.6907   ZZ=             -7.0839
   XY=              1.0078   XZ=             -0.8472   YZ=             -0.8702
 Octapole moment (field-independent basis, Debye-Ang**2):
  XXX=              0.0452  YYY=            -11.9263  ZZZ=             -1.5106  XYY=            -13.6579
  XXY=             -2.5950  XXZ=             15.2281  XZZ=             -7.7802  YZZ=             -2.9573
  YYZ=             -3.5763  XYZ=             -7.6419
 Hexadecapole moment (field-independent basis, Debye-Ang**3):
 XXXX=          -3121.7153 YYYY=           -489.1396 ZZZZ=           -421.8000 XXXY=             43.3140
 XXXZ=            -35.3167 YYYX=             -9.1559 YYYZ=              0.6708 ZZZX=             -5.4130
 ZZZY=             -2.4442 XXYY=           -638.5801 XXZZ=           -627.9923 YYZZ=           -159.3485
 XXYZ=             15.7661 YYXZ=             -2.2731 ZZXY=              2.2485
 N-N= 1.089076330257D+03 E-N=-7.157904536324D+03  KE= 2.097370715104D+03
                          Isotropic Fermi Contact Couplings
        Atom                 a.u.       MegaHertz       Gauss      10(-4) cm-1
     1  C(13)              0.00000       0.00000       0.00000       0.00000
     2  C(13)              0.00000       0.00000       0.00000       0.00000
     3  C(13)              0.00000       0.00000       0.00000       0.00000
     4  C(13)             -0.00000      -0.00000      -0.00000      -0.00000
     5  H(1)               0.00000       0.00000       0.00000       0.00000
     6  H(1)               0.00000       0.00000       0.00000       0.00000
     7  C(13)             -0.00000      -0.00000      -0.00000      -0.00000
     8  H(1)               0.00000       0.00000       0.00000       0.00000
     9  H(1)               0.00000       0.00000       0.00000       0.00000
    10  H(1)              -0.00000      -0.00000      -0.00000      -0.00000
    11  H(1)              -0.00000      -0.00000      -0.00000      -0.00000
    12  H(1)              -0.00000      -0.00000      -0.00000      -0.00000
    13  H(1)              -0.00000      -0.00000      -0.00000      -0.00000
    14  C(13)              0.00000       0.00000       0.00000       0.00000
    15  Cu(63)             0.00000       0.00000       0.00000       0.00000
    16  H(1)               0.00000       0.00000       0.00000       0.00000
    17  H(1)              -0.00000      -0.00000      -0.00000      -0.00000
    18  H(1)              -0.00000      -0.00000      -0.00000      -0.00000
    19  C(13)              0.00000       0.00000       0.00000       0.00000
    20  C(13)              0.00000       0.00000       0.00000       0.00000
    21  C(13)              0.00000       0.00000       0.00000       0.00000
    22  C(13)              0.00000       0.00000       0.00000       0.00000
    23  C(13)              0.00000       0.00000       0.00000       0.00000
    24  H(1)              -0.00000      -0.00000      -0.00000      -0.00000
    25  H(1)              -0.00000      -0.00000      -0.00000      -0.00000
    26  H(1)              -0.00000      -0.00000      -0.00000      -0.00000
    27  C(13)              0.00000       0.00000       0.00000       0.00000
    28  H(1)              -0.00000      -0.00000      -0.00000      -0.00000
    29  H(1)              -0.00000      -0.00000      -0.00000      -0.00000
 --------------------------------------------------------
       Center         ----  Spin Dipole Couplings  ----
                      3XX-RR        3YY-RR        3ZZ-RR
 --------------------------------------------------------
     1   Atom        0.000000     -0.000000     -0.000000
     2   Atom        0.000000     -0.000000      0.000000
     3   Atom       -0.000000     -0.000000      0.000000
     4   Atom        0.000000     -0.000000     -0.000000
     5   Atom       -0.000000      0.000000     -0.000000
     6   Atom       -0.000000     -0.000000      0.000000
     7   Atom       -0.000000      0.000000      0.000000
     8   Atom       -0.000000      0.000000      0.000000
     9   Atom       -0.000000      0.000000     -0.000000
    10   Atom       -0.000000      0.000000      0.000000
    11   Atom       -0.000000      0.000000      0.000000
    12   Atom        0.000000      0.000000     -0.000000
    13   Atom       -0.000000      0.000000      0.000000
    14   Atom       -0.000000      0.000000      0.000000
    15   Atom       -0.000000      0.000000      0.000000
    16   Atom       -0.000000      0.000000      0.000000
    17   Atom       -0.000000     -0.000000      0.000000
[...]
 92362,0.00143798,0.00986324,-0.00275640,-0.00477467,0.00484654,-0.0377
 0393,0.00435161,0.03083075,0.00234953,-0.00275936,0.00506928,-0.141958
 47,-0.00546496,0.00938065,0.53404219,0.00000898,-0.00000332,0.00001014
 ,-0.00001265,-0.00001944,0.00000779,-0.00006562,0.00006263,-0.00012803
 ,0.00002957,-0.00001530,0.00001641,0.00000415,0.00000184,-0.00000269,0
 .00001263,0.00000181,-0.00001570,0.00001602,-0.00000134,0.00000980,-0.
 00001703,-0.00000217,0.00000805,0.00000603,-0.00000267,-0.00000086,0.0
 0000013,0.00000075,-0.00000329,0.00000467,-0.00000941,0.00000794,-0.00
 002163,0.00001690,-0.00003613,-0.00000553,0.00000314,-0.00000124,0.000
 02079,0.00001824,-0.00000489,-0.00090200,-0.00056839,0.00068901,-0.008
 40657,-0.05800295,0.04025569,-0.00080040,0.00146752,-0.00083753,0.0107
 9597,-0.00089446,-0.00184228,-0.00050087,-0.00339375,-0.00192112,0.004
 80610,0.00174974,-0.00245722,-0.00787511,0.00058772,0.00192138,-0.0288
 1682,-0.05088016,0.02050859,-0.10703220,0.33846435,0.00000371,-0.00001
 641,-0.00002160,0.00006035,-0.00001538,-0.00004846,0.00012808,-0.00001
 106,0.00013627,-0.00001759,0.00000727,-0.00002667,0.00000970,-0.000001
 66,0.00000790,-0.00001955,0.00000255,0.00002102,-0.00002870,-0.0000063
 0,0.00002409,-0.00000527,0.00000696,-0.00003880,-0.00002113,0.00000586
 ,-0.00000918,0.00000491,0.00000269,0.00000311,-0.00002332,-0.00000323,
 -0.00000101,-0.00002258,0.00001842,0.00002446,0.00001530,-0.00000414,0
 .00000948,0.00000139,-0.00003076,-0.00003096,-0.00011979,0.00031218,-0
 .00012250,0.05891813,0.03977309,-0.31003117,0.00240949,0.00185257,-0.0
 0134529,-0.01913261,0.00330946,0.00701632,0.00563417,-0.00148326,-0.01
 173052,0.05467294,-0.01156391,-0.03779046,-0.00788780,-0.01005989,-0.0
 0376139,0.01935454,0.02444185,-0.05202351,-0.01563466,-0.08814573,0.61
 811861,-0.00001121,0.00017283,-0.00023849,0.00075366,0.00017754,0.0005
 1927,0.00057008,-0.00015074,0.00040643,-0.00005700,0.00003341,-0.00003
 189,-0.00004493,-0.00003271,0.00000097,-0.00002005,-0.00001594,0.00003
 815,0.00002423,0.00004859,-0.00004441,0.00006987,-0.00000240,-0.000014
 04,-0.00001335,-0.00001653,-0.00000390,0.00001359,-0.00001576,0.000013
 45,-0.00007831,0.00001855,-0.00007823,-0.00006723,0.00002864,-0.000028
 88,-0.00002191,0.00001217,0.00000162,-0.00040562,0.00005207,0.00013611
 ,-0.00371826,0.00294276,-0.00143516,-0.00018370,-0.00010289,0.00004687
 ,-0.00109906,0.00080801,-0.00049354,0.00006080,-0.00193567,-0.00055114
 ,0.00764906,0.00263900,-0.00009033,0.00157824,-0.00622490,0.00571195,-
 0.07084166,-0.08944551,0.00043709,0.00431323,-0.00435284,-0.00424430,0
 .00112018,-0.00032085,-0.00049988,0.06086883,0.00001198,0.00005970,-0.
 00000341,-0.00013364,-0.00011448,-0.00018260,-0.00026851,0.00030773,-0
 .00024614,0.00006279,-0.00000993,0.00000118,0.00003736,0.00000809,0.00
 000905,-0.00000538,0.00000573,-0.00000740,0.00001220,-0.00004179,0.000
 07643,-0.00003406,-0.00000568,-0.00002994,-0.00001645,0.00000588,-0.00
 000648,-0.00000458,0.00000487,0.00000377,0.00006980,-0.00000100,0.0000
 8669,-0.00001627,-0.00000828,-0.00000240,-0.00000069,0.00001242,0.0000
 0659,0.00000401,-0.00002687,0.00008211,0.00141525,-0.00348377,0.000352
 54,-0.00007315,0.00000422,0.00002878,0.00066244,-0.00044236,-0.0000071
 0,-0.00008752,-0.00025381,0.00006421,-0.00729933,-0.00027879,0.0046159
 9,-0.00317185,-0.00306372,0.00160021,-0.08860733,-0.31263047,-0.036652
 06,0.00211743,-0.00014969,-0.00536862,0.00014751,-0.00000427,-0.000297
 07,0.09640374,0.32114604,-0.00004275,0.00000979,-0.00013543,0.00041860
 ,0.00016349,0.00027502,0.00038819,-0.00022800,0.00033815,-0.00006463,-
 0.00001916,-0.00001524,-0.00000447,0.00000587,0.00001537,-0.00000516,0
 .00000774,0.00000602,0.00003044,0.00004810,-0.00002965,0.00003753,-0.0
 0000585,0.,0.00000266,-0.00000995,-0.00000464,0.00001465,-0.00000507,0
 .00000484,-0.00010169,0.00001789,-0.00009171,-0.00002754,0.00003628,-0
 .00001105,0.00000327,-0.00000636,-0.00000655,-0.00019712,0.00007691,0.
 00003182,-0.00188843,0.00190202,-0.00001374,0.00007611,0.00007436,-0.0
 0004232,-0.00111502,0.00130207,-0.00041672,-0.00035771,0.00085488,-0.0
 0081318,-0.00534654,-0.01602693,0.00546602,0.00271933,-0.00281382,0.00
 145637,0.00447564,-0.02962364,-0.05321034,-0.00140830,0.00473012,0.007
 04969,-0.00080667,0.00044390,0.00093202,0.00226780,0.03724702,0.038829
 55,-0.00000082,-0.00000850,0.00002812,-0.00006745,-0.00001561,-0.00002
 279,-0.00004196,0.00005180,-0.00004384,0.00000953,0.00000150,0.0000007
 7,0.00000240,-0.00000154,0.00000168,0.00000214,-0.00000154,-0.00000221
 ,-0.00000412,0.00000653,-0.00001047,-0.00000415,-0.00000172,0.00000760
 ,0.00000108,0.00000113,0.00000066,-0.00000102,0.00000059,-0.00000041,0
 .00000354,-0.00000103,-0.00000139,-0.00000215,-0.00000485,-0.00001381,
 -0.00001077,0.00000838,-0.00000202,0.00005706,-0.00000618,-0.00001601,
 0.00000437,-0.00001256,-0.00005638,0.00050492,-0.00064635,0.00004168,-
 0.00003642,-0.00000741,-0.00001233,0.00013382,-0.00028153,-0.00048632,
 0.00022404,0.00065505,0.00033995,0.01228039,-0.01386391,0.01057893,-0.
 00051812,0.00037521,0.00003704,-0.00001247,-0.00060130,0.00131097,-0.0
 0752118,0.00775677,-0.00719004,0.00010691,0.00003524,0.00009709,0.1187
 7842,0.00000207,-0.00000197,0.00001398,0.00005338,-0.00001255,0.000038
 04,-0.00003922,0.00002499,-0.00004819,0.00001969,0.00000535,0.00000200
 ,0.00000656,0.00000238,-0.00000307,0.00000261,-0.00000045,-0.00000959,
 0.00000742,-0.00000066,0.00000671,-0.00001395,0.00000556,-0.00000499,-
 0.00000122,0.00000166,-0.00000386,0.00000062,0.00000088,-0.00000167,0.
 00000342,-0.00000783,0.00000819,-0.00004418,0.00000129,-0.00004045,-0.
 00001517,0.00001562,0.00000211,0.00002480,0.00000387,0.00000735,-0.000
 12741,-0.00027200,0.00010040,-0.00007444,0.00132396,0.00011418,-0.0000
 5162,-0.00013444,-0.00001028,-0.00105439,-0.00054161,-0.00086165,-0.00
 071246,0.00020574,-0.00000826,0.00907195,-0.00705035,0.00571546,-0.001
 22140,0.00065496,-0.00005440,0.00182191,-0.00013901,0.00075252,0.00827
 638,-0.01147472,0.01206037,0.00007019,0.00003144,-0.00010285,-0.092899
 17,0.17282353,-0.00000743,-0.00002728,-0.00001793,-0.00005927,0.000029
 78,-0.00000800,0.00004322,-0.00005866,0.00001280,-0.00001438,-0.000003
 58,0.00000378,-0.00000659,-0.00000312,-0.00000111,0.00000026,0.0000022
 0,0.00000235,0.00000135,0.00000212,-0.00000044,0.00000590,0.00000240,0
 .00000298,0.00000094,-0.00000264,0.00000047,0.00001086,-0.00000011,-0.
 00000475,-0.00000847,-0.00000031,-0.00001348,0.00001391,0.00000814,0.0
 0001817,0.00002986,-0.00002213,0.00001371,-0.00001192,0.00002304,-0.00
 004219,0.00006310,0.00032526,0.00022066,0.00019541,0.00117122,0.000830
 13,0.00005406,0.00013536,-0.00004235,-0.00025849,-0.00038600,-0.000056
 55,-0.00128944,-0.00050299,0.00005389,-0.00864574,0.00924224,-0.010845
 16,0.00077182,0.00028821,0.00040687,0.00158643,-0.00172520,-0.00036276
 ,0.00862796,-0.01398471,0.01106403,0.00001794,0.00002927,-0.00004487,0
 .08708372,-0.11079638,0.15031697,0.00007078,0.00016042,-0.00010944,0.0
 0032110,-0.00010902,0.00013231,0.00003947,0.00018705,-0.00001207,0.000
 02712,0.00000043,-0.00001732,0.00002117,-0.00000454,0.00000390,-0.0000
 1806,0.00000232,0.00001322,0.00001112,-0.00006077,0.00008232,-0.000028
 02,-0.00001544,-0.00005145,-0.00003236,-0.00000099,-0.00001421,-0.0000
 0248,0.00000270,0.00000868,-0.00000910,-0.00000493,0.00004607,-0.00004
 373,0.00000514,-0.00001544,-0.00001701,0.00002026,0.00000765,-0.000206
 09,-0.00000065,0.00016062,-0.00076119,-0.00142455,-0.00058761,0.000374
 08,-0.00050495,0.00020036,0.00041963,0.00004403,0.00039970,-0.00035655
 ,-0.00059844,0.00151772,-0.02884710,0.00204426,-0.01360968,-0.15494905
 ,0.08834305,-0.10804699,-0.00455079,-0.00020068,0.00026812,0.00112541,
 -0.00133502,0.00178011,-0.00143759,-0.00092786,0.00413095,0.00125324,-
 0.00017428,0.00042292,-0.00060138,-0.00124978,0.00238680,0.18183971,0.
 00000736,0.00005474,0.00001982,-0.00009984,-0.00010871,0.00001104,-0.0
 0011033,0.00023525,-0.00008860,0.00001933,0.00000621,-0.00001586,0.000
 00532,-0.00000339,0.00000683,-0.00001112,-0.00000482,0.00000806,-0.000
 00434,-0.00001273,0.00001150,-0.00000636,-0.00000023,-0.00000999,-0.00
 000695,0.00000285,0.00000007,-0.00000368,-0.00000049,0.00000650,0.0000
 2475,-0.00000245,0.00003815,0.00000591,-0.00002454,0.00001009,-0.00002
 227,0.00002141,0.00000465,0.00000010,-0.00004451,0.00002433,-0.0000047
 5,-0.00080436,-0.00077788,-0.00026329,0.00013117,-0.00026344,0.0002258
 4,0.00066831,-0.00001745,-0.00120754,-0.00125328,-0.00177849,-0.003318
 36,0.00046055,-0.00168912,0.08864362,-0.10337009,0.08190577,-0.0074008
 8,0.00191785,-0.00639632,-0.01224970,0.00587047,-0.01223741,0.00035563
 ,-0.00091515,-0.00266674,0.00173970,-0.00031634,0.00091332,-0.00420091
 ,-0.00264850,0.00337103,-0.07620795,0.11956292,-0.00004835,-0.00010136
 ,0.00004575,-0.00019792,-0.00001512,-0.00009645,-0.00000407,-0.0000980
 5,0.00002941,-0.00004273,0.00000400,0.00000239,-0.00001894,-0.00000057
 ,0.00000348,0.00000218,-0.00000426,0.00000359,0.00000201,0.00003730,-0
 .00005197,0.00003271,0.00001475,0.00003592,0.00001787,0.00000206,0.000
 01027,0.00000488,-0.00000248,-0.00000233,0.00000606,0.00000771,-0.0000
 3760,0.00004869,-0.00000966,0.00003207,0.00001743,-0.00001683,-0.00000
 375,0.00010655,0.00000213,-0.00008118,0.00082954,0.00090896,0.00062512
 ,0.00005669,-0.00027444,0.00060169,-0.00081679,-0.00020083,-0.00050620
 ,-0.00070424,-0.00267726,-0.00356439,0.01023142,-0.00090138,0.00641238
 ,-0.09518269,0.06820873,-0.12465955,0.00484990,0.00152372,-0.00021638,
 -0.01735354,0.01142383,-0.01879107,-0.00182222,0.00116722,-0.00372364,
 -0.00020298,-0.00028419,0.00006810,0.00081891,0.00001913,-0.00058733,0
 .10089332,-0.08289459,0.14811277,-0.00001055,-0.00003868,0.00003603,0.
 00016914,0.00000422,0.00003789,0.00002595,-0.00007518,0.00001587,0.000
 01025,0.00000662,0.00000432,0.00000384,0.00000846,-0.00000651,0.000005
 95,-0.00000167,-0.00001269,0.00000502,0.00001690,-0.00000906,0.0000029
 1,0.00001551,-0.00001008,0.00000431,0.00000588,-0.00000323,-0.00000437
 ,0.00000217,-0.00000337,0.00000959,-0.00000705,-0.00000151,-0.00005166
 ,-0.00000644,-0.00005333,-0.00002856,0.00002147,-0.00000228,0.00006712
 ,0.00000503,-0.00000840,-0.00010813,0.00005918,0.00065012,-0.00135835,
 0.00221607,-0.00125325,0.00034193,0.00046409,-0.00013751,-0.00038555,-
 0.00291141,0.00113468,-0.00032168,-0.00308527,-0.00615292,-0.09127522,
 -0.04866084,0.01630544,-0.00394708,-0.00866829,0.00133442,-0.01415985,
 -0.04094068,-0.00425490,-0.06731568,0.02758670,-0.00523711,-0.00115510
 ,-0.00092034,0.00052719,-0.11611966,0.08532509,-0.08465439,0.00603352,
 0.01327047,-0.00299430,0.47181044,0.00000760,-0.00003976,0.00003925,-0
 .00027133,-0.00000441,-0.00015629,-0.00010132,0.00007774,-0.00011740,0
 .00002633,-0.00002920,0.00002344,-0.00000970,-0.00000486,0.00000017,0.
 00001335,0.00000168,-0.00000540,-0.00002113,0.00001054,-0.00001873,-0.
 00000719,-0.00001035,0.00001659,0.00000773,-0.00000405,0.00000254,-0.0
 0000862,0.00000271,-0.00000640,0.00000269,-0.00000508,-0.00001079,0.00
 004369,0.00002131,0.00002780,0.00002122,-0.00002005,-0.00001094,0.0000
 8948,-0.00000043,-0.00005146,-0.00027705,0.00021443,0.00039066,-0.0006
 5627,0.00646406,0.00376931,0.00190465,0.00193016,0.00012982,0.00123150
 ,0.00097404,0.00177608,-0.00160185,0.00472218,-0.00896918,-0.02640615,
 -0.10556521,0.04227082,-0.00660621,-0.00736475,-0.00226510,-0.02769421
 ,-0.06161531,-0.00565986,0.02654163,-0.10300743,-0.02656225,-0.0020021
 9,-0.00037425,0.00062435,0.08736393,-0.16217210,0.10528001,-0.00774845
 ,-0.02047282,0.00443716,0.04379485,0.56832681,-0.00000182,0.00001410,-
 0.00000582,0.00015887,0.00002248,0.00009330,0.00000513,-0.00005325,-0.
 00004036,0.00001968,0.00000625,0.00000687,0.00001091,0.00000478,-0.000
 00869,0.00000759,0.00000038,-0.00001548,0.00001524,0.00000256,0.000001
 96,-0.00000726,0.00001530,0.00000024,0.00000600,0.00000155,-0.00000171
 ,0.00000630,-0.00000354,0.00000046,-0.00000229,-0.00000714,0.00000496,
 -0.00005583,-0.00001237,-0.00005800,-0.00002999,0.00001885,0.00000823,
 -0.00002559,0.00001373,0.00001987,-0.00022495,-0.00021497,0.00016792,0
 .00348549,-0.01989832,-0.00583103,0.00022876,0.00049417,0.00008855,0.0
 0029480,-0.00339724,-0.00055034,0.00499717,0.00172567,-0.00782818,0.00
 540754,0.05178112,-0.06310808,0.00159463,-0.00702349,-0.00401120,-0.00
 947455,-0.02949140,-0.00015743,-0.00140903,-0.02439442,-0.09324264,-0.
 00163865,-0.00148524,0.00022812,-0.08387043,0.10346200,-0.14239074,0.0
 0892745,0.02399795,-0.00347844,0.18133104,-0.03487781,0.45439187,0.000
 00288,0.00000893,-0.00002057,0.00003516,-0.00001895,-0.00001545,0.0000
 8016,-0.00000082,0.00008119,-0.00002155,0.00000827,-0.00001649,0.00000
 672,-0.00000044,0.00000607,-0.00001315,0.00000014,0.00001370,-0.000008
 03,-0.00001150,0.00001933,0.00000593,0.00000316,-0.00001985,-0.0000129
 6,0.00000403,-0.00000323,0.00000251,0.00000039,0.00000441,-0.00000560,
 0.00000642,0.00000306,0.00000491,-0.00000282,0.00002092,0.00000510,0.0
 0000002,0.00000310,-0.00002774,-0.00001942,0.00000273,0.00029454,0.000
 11010,-0.00016916,0.00825107,-0.00437804,0.00414319,0.00021746,-0.0001
 6996,0.00013559,-0.00464112,0.00027896,0.00224852,-0.00056911,-0.00059
 216,0.00051242,-0.00008704,-0.00020491,-0.00156875,0.00085111,-0.00050
 379,-0.00020415,-0.01515497,0.01278810,-0.01140138,-0.19686122,0.09991
 361,-0.09695203,-0.00024080,-0.00005380,0.00011345,0.00009347,-0.00031
 776,0.00025936,-0.00035757,-0.00008863,0.00113375,-0.00142839,-0.00019
 807,-0.00200748,0.20910609,0.00000377,0.00000044,0.00000714,0.00005121
 ,-0.00000192,-0.00001232,0.00001681,-0.00001198,0.00004600,-0.00000638
 ,0.00000798,-0.00000843,0.00000276,0.00000202,0.00000129,-0.00000494,-
 0.00000078,0.00000406,-0.00001010,-0.00000578,0.00000646,-0.00000163,0
 .00000446,-0.00001043,-0.00000569,0.00000399,-0.00000318,-0.00000258,0
 .00000033,0.00000170,0.00000034,0.00000242,0.00000154,-0.00001514,-0.0
 0000615,-0.00000299,-0.00000968,0.00000718,-0.00000098,0.00000936,-0.0
 0001433,0.00000645,0.00018383,0.00000866,-0.00011955,0.00247584,-0.000
 79338,0.00080668,0.00009669,-0.00004117,0.00002942,-0.00366552,0.00071
 746,0.00077418,-0.00067778,0.00014781,-0.00004033,-0.00093050,-0.00176
 028,-0.00011758,0.00066508,0.00011572,-0.00046530,-0.01302869,0.008880
 97,-0.00789388,0.10097541,-0.10901916,0.06694020,0.00001658,-0.0000354
 6,-0.00002125,0.00225050,-0.00259918,-0.00329317,0.00030427,0.00051429
 ,-0.00047037,0.01879851,-0.01247384,0.01229064,-0.10648083,0.11523431,
 -0.00000444,0.00000704,-0.00000437,-0.00000647,-0.00000542,-0.00000404
 ,0.00001428,0.00002268,0.00001501,-0.00000342,0.00000313,-0.00000404,0
 .00000081,-0.00000094,0.00000285,-0.00000380,-0.00000050,0.00000269,0.
 00000139,-0.00000103,0.00000313,0.00000386,0.00000134,-0.00000445,-0.0
 0000242,0.00000079,0.00000042,0.00000041,-0.00000043,0.00000240,0.0000
 0280,0.00000330,0.00000198,0.00000838,-0.00000424,0.00000337,-0.000001
 48,0.00000235,-0.00000142,-0.00000984,-0.00000787,0.00000376,0.0000076
 5,-0.00002230,-0.00005790,-0.02156888,0.01285214,-0.00987912,-0.000040
 75,-0.00001329,0.00001876,0.00013068,-0.00099415,0.00030793,-0.0002810
 8,0.00060437,0.00027500,0.00180219,-0.00205769,0.00063251,0.00059714,0
 .00083267,-0.00022806,0.00104240,-0.00413900,0.00027625,-0.09957489,0.
 06944621,-0.11703489,-0.00009688,0.00006696,-0.00011769,0.00169414,-0.
 00126866,-0.00107494,0.00085188,-0.00029659,-0.00044746,0.01244520,-0.
 00626730,0.00607285,0.10355642,-0.06911472,0.12010112,0.00001328,0.000
 02042,-0.00002468,0.00002095,-0.00002437,-0.00001267,0.00003211,0.0000
 3500,0.00001916,-0.00000649,-0.00000231,-0.00000606,0.00000752,0.00000
 116,0.00000394,-0.00000540,0.00000019,0.00000657,0.00000056,-0.0000111
 5,0.00002048,0.00000067,-0.00000348,-0.00001226,-0.00000787,0.00000024
 ,-0.00000165,-0.00000382,0.00000068,0.00000412,-0.00000056,0.00000128,
 0.00000962,0.00000848,0.00000106,0.00001717,0.00000260,-0.00000062,-0.
 00000351,-0.00003709,-0.00001233,0.00002236,0.00010031,0.00000444,-0.0
 0006971,-0.00009978,0.00057946,0.00058883,-0.00016056,-0.00009974,-0.0
 0000423,0.00026355,-0.00004751,0.00060720,0.00131701,-0.00050037,-0.00
 154738,-0.00909032,-0.00135066,-0.00955683,0.00052654,-0.00200411,-0.0
 0051229,-0.00037570,-0.00280646,0.00139823,0.00954897,0.00474299,0.007
 44839,-0.00042374,-0.00011255,-0.00022883,-0.00726041,-0.00686389,-0.0
 0619677,0.00068173,0.00090890,0.00033685,-0.18082012,-0.08743889,-0.10
 774876,0.00047216,-0.00101153,-0.00056527,0.18529542,0.00000441,0.0000
 1452,-0.00001506,0.00006187,-0.00002634,0.00002422,0.00003841,0.000023
 96,0.00000284,0.00000201,0.00000515,-0.00000657,0.00001145,0.00000153,
 0.00000129,-0.00000579,0.00000019,0.00000203,0.00000395,-0.00000677,0.
 00001903,-0.00000023,0.00000549,-0.00001729,-0.00000860,0.00000279,-0.
 00000309,0.00000230,0.00000104,0.00000283,0.00000283,-0.00000125,0.000
 01275,-0.00002059,-0.00000642,-0.00001403,-0.00000972,0.00001125,0.000
 00531,-0.00001994,-0.00001206,0.00001147,-0.00006314,-0.00005348,0.000
 06024,0.00008022,-0.00106041,-0.00063401,-0.00014521,-0.00007028,0.000
 01794,-0.00010044,0.00059640,-0.00011434,0.00101452,0.00036669,-0.0008
 6875,-0.00727058,-0.00671268,-0.00714916,-0.00079326,-0.00249085,-0.00
 167131,-0.00376844,-0.00517126,0.00271717,-0.01160150,-0.00416054,-0.0
 0786571,-0.00054488,-0.00034515,0.00040475,0.01404748,0.01195414,0.010
 89598,-0.00054564,0.00053638,0.00019468,-0.08628535,-0.10958176,-0.072
 99233,-0.00008025,0.00111539,0.00035113,0.09599412,0.11506431,-0.00000
 192,0.00000258,-0.00000537,-0.00001725,-0.00000418,-0.00002223,0.00001
 439,0.00000695,0.00001960,-0.00000619,0.00000014,-0.00000209,-0.000000
 57,-0.00000048,0.00000231,-0.00000297,-0.00000005,0.00000414,-0.000002
 43,-0.00000155,0.00000150,0.00000265,-0.00000223,-0.00000133,-0.000001
 43,0.00000007,0.00000139,-0.00000026,-0.00000020,0.00000227,0.00000056
 ,0.00000295,-0.00000029,0.00001500,-0.00000046,0.00001556,0.00000611,-
 0.00000373,-0.00000155,-0.00000884,-0.00000844,-0.00000031,0.00005088,
 0.00006883,-0.00006526,0.00019425,-0.00113166,-0.00051731,0.00012375,0
 .00000111,0.00001919,0.00039510,-0.00005722,0.00020948,-0.00095181,0.0
 0043292,0.00143983,0.01238428,0.00583198,0.01090896,0.00005352,0.00090
 048,0.00023976,-0.00047202,0.00118376,0.00081069,-0.00888913,-0.000716
 30,-0.00637462,0.00009507,0.00030186,0.00025207,-0.01031283,-0.0090881
 1,-0.00745423,0.00023013,-0.00119662,0.00026477,-0.10902735,-0.0738091
 0,-0.14035706,0.00012131,0.00065871,0.00113835,0.11600798,0.07662797,0
 .13947176\\-0.00004203,0.00004811,-0.00006774,0.00007205,0.00008885,0.
 00005210,-0.00000725,-0.00019901,-0.00001728,0.00000884,-0.00001187,-0
 .00001195,0.00000247,-0.00000308,0.00002348,0.00000841,-0.00002459,-0.
 00002077,0.00005319,-0.00011531,-0.00009130,-0.00002089,0.00005327,-0.
 00002760,-0.00001988,0.00004194,-0.00003379,-0.00001845,0.00003636,-0.
 00008697,0.00000718,-0.00006295,0.00001483,0.00000807,-0.00005937,-0.0
 0004342,0.00000407,-0.00001842,-0.00008543,0.00008814,-0.00001967,0.00
 001065,-0.00011986,0.00011994,0.00016942,0.00001607,-0.00003856,0.0000
 3846,-0.00001819,0.00008564,0.00002678,-0.00002993,0.00004608,-0.00018
 593,-0.00003086,-0.00005742,0.00003525,-0.00002439,-0.00003269,0.00002
 249,0.00008894,0.00011181,-0.00001570,0.00001227,0.00002065,0.00011155
 ,0.00001016,-0.00001511,0.00002456,-0.00004107,-0.00000145,0.00010408,
 0.00000258,-0.00002013,-0.00003139,-0.00001053,0.00002651,0.00003308,0
 .00000539,-0.00001862,-0.00000148,0.00000118,-0.00000452,0.00005890,-0
 .00000569,0.00002363,-0.00000489\\\@
 The archive entry for this job was punched.


 EDUCATION DOESN'T COST 
           ... IT PAYS!

 -- POSTMARK, UNIV. OF MISSISSIPPI, DEC 78
 Job cpu time:       0 days  1 hours 22 minutes 57.5 seconds.
 Elapsed time:       0 days  0 hours  3 minutes 28.4 seconds.
 File lengths (MBytes):  RWF=    456 Int=      0 D2E=      0 Chk=     16 Scr=      1
 Normal termination of Gaussian 16 at Thu Apr  9 13:03:01 2026.
